1 : Hydrogen_peroxide
2 : 00
3 : 1
----- GAMESS execution script 'rungms' -----
This job is running on host nayanika-HP-Pavilion-Gaming-Laptop-15-ec0xxx
under operating system Linux at Thursday 06 October 2022 07:29:05 PM IST
Available scratch disk space (Kbyte units) at beginning of the job is
Filesystem     1K-blocks      Used Available Use% Mounted on
/dev/nvme0n1p2 243520884 108135500 122942352  47% /
GAMESS temporary binary files will be written to /home/nayanika/gamess/restart
GAMESS supplementary output files will be written to /home/nayanika/gamess/restart
Copying input file /home/nayanika/OneDrive/Thesis/QM/Toymodel_Reactants/Hydrogen_peroxide.inp to your run's scratch directory...

 Distributed Data Interface kickoff program.
 Initiating 1 compute processes on 1 nodes to run the following command:
 /home/nayanika/gamess/gamess.00.x Hydrogen_peroxide 

          *******************************************************
          *                                                     *
          *          GAMESS VERSION = 31 JUL 2022 (R1)          *
          *                                                     *
          *              doi.org/10.1063/5.0005188              *
          *                                                     *
          **************** 64 BIT LINUX VERSION *****************

  GAMESS HAS BEEN MADE POSSIBLE WITH IMPORTANT CONTRIBUTIONS FROM
  THE FOLLOWING INDIVIDUALS (IN ALPHABETICAL ORDER):

     IVANA ADAMOVIC, CHRISTINE AIKENS, TOMOKO AKAMA,
     MELISA ALKAN, YURI ALEXEEV, YURIKO AOKI, POOJA ARORA,
     TOSHIO ASADA, ANDREY ASADCHEV, KIM K. BALDRIDGE,
     PRADIPTA BANDYOPADHYAY, TAYLOR A. BARNES, MARIA BARYSZ,
     ROB BELL, JONATHAN BENTZ, COLLEEN BERTONI,
     JERRY A. BOATZ, BRETT BODE, KURT BRORSEN, KURT R. BRORSEN,
     LAIMUTIS BYTAUTAS, CALEB CARLIN, LAURA CARRINGTON,
     GALINA CHABAN, BENOIT CHAMPAGNE, WEI CHEN, MAHITO CHIBA,
     DAN CHIPMAN, CHEOL HO CHOI, TANNER CULPITT,
     DIPAYAN DATTA, PAUL DAY, ALBERT DEFUSCO,
     NUWAN DESILVA, J. EMILIANO DEUSTUA,
     TIM DUDLEY, MICHEL DUPUIS, STEVEN T. ELBERT,
     DMITRI FEDOROV, KATHERINE FERRERAS, MICHAEL FILATOV,
     ALEX FINDLATER,GRAHAM FLETCHER, MARK FREITAG,
     CHRISTIAN FRIEDL, DAVID GARMER, 
     IGOR S. GERASIMOV, KURT GLAESEMANN,
     MARK S. GORDON, JEFFREY GOUR, FENG LONG GU,
     EMILIE B. GUIDEZ, ANASTASIA GUNINA, SHARON HAMMES-SCHIFFER,
     MASATAKE HARUTA, KIMIHIKO HIRAO, YASUHIRO IKABATA,
     TZVETELIN IORDANOV, STEPHAN IRLE, KAZUYA ISHIMURA,
     JOE IVANIC, FRANK JENSEN, JAN H. JENSEN, VISVALDAS KAIRYS,
     MUNEAKI KAMIYA, MICHIO KATOUDA, NAOAKI KAWAKAMI, DAN KEMP,
     BERNARD KIRTMAN, KAZUO KITAURA, MARIUSZ KLOBUKOWSKI,
     MASATO KOBAYASHI, KONSTANTIN KOMAROV, PRAKASHAN KORAMBATH,
     JACEK KORCHOWIEC, SHIRO KOSEKI, KAROL KOWALSKI,
     JIMMY KROMANN, STANISLAW KUCHARSKI, HENRY KURTZ,
     SAROM SOK LEANG, SEUNGHOON LEE, HUI LI, SHUHUA LI, WEI LI,
     JESSE LUTZ, ALEKSANDR O. LYKHIN, MARCIN MAKOWSKI,
     JOANI MATO, NIKITA MATSUNAGA, BENEDETTA MENNUCCI,
     GRANT MERRILL, NORIYUKI MINEZAWA, VLADIMIR MIRONOV,
     EISAKU MIYOSHI, JOHN A. MONTGOMERY JR., HIROTOSHI MORI,
     JONATHAN MULLIN, MONIKA MUSIAL, SHIGERU NAGASE,
     TAKESHI NAGATA, HIROMI NAKAI, TAKAHITO NAKAJIMA,
     YUYA NAKAJIMA, HARUYUKI NAKANO, HIROYA NAKATA, SEAN NEDD,
     HEATHER NETZLOFF, KIET A. NGUYEN, YOSHIO NISHIMOTO,
     BOSILJKA NJEGIC, RYAN OLSON, MIKE PAK, ROBERTO PEVERATI,
     BUU PHAM, PIOTR PIECUCH, ANNA POMOGAEVA, DAVID POOLE,
     SPENCER PRUITT, OLIVIER QUINET, LUKE ROSKOP,
     KLAUS RUEDENBERG, ANDREW SAND, TOSAPORN SATTASATHUCHANA,
     NOZOMI SAWADA, MICHAEL W. SCHMIDT, PATRICK E. SCHNEIDER,
     JUNJI SEINO, PRACHI SHARMA, JUN SHEN, JIM SHOEMAKER,
     YINAN SHU, DEJUN SI, JONATHAN SKONE, LYUDMILA SLIPCHENKO,
     TONY SMITH, JIE SONG, MARK SPACKMAN, CASPER STEINMANN,
     WALT STEVENS, PEIFENG SU, SHUJUN SU, CHET SWALINA,
     CHINAMI TAKASHIMA, TETSUYA TAKETSUGU, ZHEN TAO,
     NANDUN THELLAMUREGE, SEIKEN TOKURA, JACOPO TOMASI,
     TSUGUKI TOUMA, TAKAO TSUNEDA, HIROAKI UMEDA,
     JORGE LUIS GALVEZ VALLEJO, YALI WANG, SIMON WEBB,
     AARON WEST, THERESA L. WINDUS, MARTA WLOCH,
     PENG XU, KIYOSHI YAGI, SUSUMU YANAGISAWA, YANG YANG,
     SOOHAENG YOO, TAKESHI YOSHIKAWA, FEDERICO ZAHARIEV,
     TOBY ZENG

  WHO ARE SUPPORTED BY THEIR INSTITUTION/UNIVERSITY/COMPANY/GROUP
  (IN ALPHABETICAL ORDER):

     EP ANALYTICS,
     FACULTES UNIVERSITAIRES NOTRE-DAME DE LA PAIX,
     INSTITUTE FOR MOLECULAR SCIENCE, IOWA STATE UNIVERSITY,
     JACKSON STATE UNIVERSITY, JOHANNES KEPLER UNIVERSITY LINZ,
     KYUNGPOOK NATIONAL UNIVERSITY
     KYUSHU UNIVERSITY, MICHIGAN STATE UNIVERSITY,
     MIE UNIVERSITY, THE MOLECULAR SCIENCES SOFTWARE INSTITUTE,
     MOSCOW STATE UNIVERSITY,
     N. COPERNICUS UNIVERSITY, NAGOYA UNIVERSITY,
     NANJING UNIVERSITY, NAT. INST. OF ADVANCED INDUSTRIAL
     SCIENCE AND TECHNOLOGY, NATIONAL INST. OF STANDARDS AND
     TECHNOLOGY, NESMEYANOV INSTITUTE OF ORGANOELEMENT COMPOUNDS
     OF RUSSIAN ACADEMY OF SCIENCES, OSAKA PREFECTURE UNIVERSITY,
     PENNSYLVANIA STATE UNIVERSITY, TOKYO INSTITUTE OF TECHNOLOGY,
     UNIVERSITY OF AARHUS, UNIVERSITY OF ALBERTA,
     UNIVERSITY OF CALIFORNIA AT SANTA BARBARA,
     UNIVERSITY OF COPENHAGEN, UNIVERSITY OF IOWA,
     UNIVERSITY OF MEMPHIS, UNIVERSITY OF MINNESOTA,
     UNIVERSITY OF NEBRASKA, UNIVERSITY OF NEW ENGLAND,
     UNIVERSITY OF NOTRE DAME, UNIVERSITY OF PISA,
     UNIVERSITY OF SILESIA, UNIVERSITY OF TOKYO,
     UNIVERSITY OF ZURICH, WASEDA UNIVERSITY,
     YALE UNIVERSITY

  GAMESS SOFTWARE MANAGEMENT TEAM FOR THIS RELEASE:
     MARK S. GORDON (TEAM LEAD),
     BRETT BODE (SENIOR ADVISOR),
     GIUSEPPE BARCA,
     COLLEEN BERTONI,
     KRISTOPHER KEIPERT (ADVISOR),
     SAROM S. LEANG (DEVELOPMENT LEAD),
     BUU PHAM,
     JACKSON HAYES (WEBSITE ADMINISTRATOR),
     PENG XU

 EXECUTION OF GAMESS BEGUN 19:29:05 06-OCT-2022    

            ECHO OF THE FIRST FEW INPUT CARDS -
 INPUT CARD> $contrl scftyp=rhf runtyp=optimize maxit=200 $end                              
 INPUT CARD> $basis gbasis=N31 ngauss=6 ndfunc=1 $end                                       
 INPUT CARD> $scf dirscf=.f. $end                                                           
 INPUT CARD> $system mwords=300 memddi=0 $end                                               
 INPUT CARD> $statpt opttol=0.0001 nstep=100 hssend=.f. $end                                
 INPUT CARD> $DATA                                                                          
 INPUT CARD>6324                                                                            
 INPUT CARD>C1                                                                              
 INPUT CARD>O      8.0     -0.5356681405    0.4102108232    0.2677737292                    
 INPUT CARD>O      8.0      0.5216806204   -0.3714115994    0.3417874180                    
 INPUT CARD>H      1.0     -1.1649740142   -0.0708476537   -0.3283986826                    
 INPUT CARD>H      1.0      1.1789615343    0.0320484299   -0.2811624645                    
 INPUT CARD> $END                                                                           
  300000000 WORDS OF MEMORY AVAILABLE

     BASIS OPTIONS
     -------------
     GBASIS=N31          IGAUSS=       6      POLAR=POPN31  
     NDFUNC=       1     NFFUNC=       0     DIFFSP=       F
     NPFUNC=       0      DIFFS=       F     BASNAM=        


     RUN TITLE
     ---------
 6324                                                                            

 THE POINT GROUP OF THE MOLECULE IS C1      
 THE ORDER OF THE PRINCIPAL AXIS IS     0

 ATOM      ATOMIC                      COORDINATES (BOHR)
           CHARGE         X                   Y                   Z
 O           8.0    -1.0122660059        0.7751860530        0.5060189749
 O           8.0     0.9858334257       -0.7018661515        0.6458845661
 H           1.0    -2.2014816697       -0.1338826524       -0.6205835248
 H           1.0     2.2279142499        0.0605627508       -0.5313200159

          INTERNUCLEAR DISTANCES (ANGS.)
          ------------------------------

                1 O          2 O          3 H          4 H     

   1 O       0.0000000    1.3169655 *  0.9913953 *  1.8396447 *
   2 O       1.3169655 *  0.0000000    1.8396445 *  0.9913954 *
   3 H       0.9913953 *  1.8396445 *  0.0000000    2.3466684 *
   4 H       1.8396447 *  0.9913954 *  2.3466684 *  0.0000000  

  * ... LESS THAN  3.000


     ATOMIC BASIS SET
     ----------------
 THE CONTRACTED PRIMITIVE FUNCTIONS HAVE BEEN UNNORMALIZED
 THE CONTRACTED BASIS FUNCTIONS ARE NOW NORMALIZED TO UNITY

  SHELL TYPE  PRIMITIVE        EXPONENT          CONTRACTION COEFFICIENT(S)

 O         

      1   S       1          5484.6716600    0.001831074430
      1   S       2           825.2349460    0.013950172200
      1   S       3           188.0469580    0.068445078098
      1   S       4            52.9645000    0.232714335992
      1   S       5            16.8975704    0.470192897984
      1   S       6             5.7996353    0.358520852987

      2   L       7            15.5396162   -0.110777549525    0.070874268231
      2   L       8             3.5999336   -0.148026262701    0.339752839147
      2   L       9             1.0137618    1.130767015354    0.727158577316

      3   L      10             0.2700058    1.000000000000    1.000000000000

      4   D      11             0.8000000    1.000000000000

 O         

      5   S      12          5484.6716600    0.001831074430
      5   S      13           825.2349460    0.013950172200
      5   S      14           188.0469580    0.068445078098
      5   S      15            52.9645000    0.232714335992
      5   S      16            16.8975704    0.470192897984
      5   S      17             5.7996353    0.358520852987

      6   L      18            15.5396162   -0.110777549525    0.070874268231
      6   L      19             3.5999336   -0.148026262701    0.339752839147
      6   L      20             1.0137618    1.130767015354    0.727158577316

      7   L      21             0.2700058    1.000000000000    1.000000000000

      8   D      22             0.8000000    1.000000000000

 H         

      9   S      23            18.7311370    0.033494604338
      9   S      24             2.8253944    0.234726953484
      9   S      25             0.6401217    0.813757326146

     10   S      26             0.1612778    1.000000000000

 H         

     11   S      27            18.7311370    0.033494604338
     11   S      28             2.8253944    0.234726953484
     11   S      29             0.6401217    0.813757326146

     12   S      30             0.1612778    1.000000000000

 TOTAL NUMBER OF BASIS SET SHELLS             =   12
 NUMBER OF CARTESIAN GAUSSIAN BASIS FUNCTIONS =   34
 NUMBER OF ELECTRONS                          =   18
 CHARGE OF MOLECULE                           =    0
 SPIN MULTIPLICITY                            =    1
 NUMBER OF OCCUPIED ORBITALS (ALPHA)          =    9
 NUMBER OF OCCUPIED ORBITALS (BETA )          =    9
 TOTAL NUMBER OF ATOMS                        =    4
 THE NUCLEAR REPULSION ENERGY IS       39.0844517345

     $CONTRL OPTIONS
     ---------------
 SCFTYP=RHF          RUNTYP=OPTIMIZE     EXETYP=RUN     
 MPLEVL=       0     CITYP =NONE         CCTYP =NONE         VBTYP =NONE    
 DFTTYP=NONE         TDDFT =NONE    
 MULT  =       1     ICHARG=       0     NZVAR =       0     COORD =UNIQUE  
 PP    =NONE         RELWFN=NONE         LOCAL =NONE         NUMGRD=       F
 ISPHER=      -1     NOSYM =       0     MAXIT =     200     UNITS =ANGS    
 PLTORB=       F     MOLPLT=       F     AIMPAC=       F     FRIEND=        
 NPRINT=       7     IREST =       0     GEOM  =INPUT   
 NORMF =       0     NORMP =       0     ITOL  =      20     ICUT  =       9
 INTTYP=BEST         GRDTYP=BEST         QMTTOL= 1.0E-06

     $SYSTEM OPTIONS
     ---------------
  REPLICATED MEMORY=   300000000 WORDS (ON EVERY NODE).
 DISTRIBUTED MEMDDI=           0 MILLION WORDS IN AGGREGATE,
 MEMDDI DISTRIBUTED OVER   1 PROCESSORS IS           0 WORDS/PROCESSOR.
 TOTAL MEMORY REQUESTED ON EACH PROCESSOR=   300000000 WORDS.
 TIMLIM=      525600.00 MINUTES, OR     365.0 DAYS.
 PARALL= F  BALTYP=  DLB     KDIAG=    0  COREFL= F
 MXSEQ2=     300 MXSEQ3=     150  mem10=         0  mem22=         0

          ----------------
          PROPERTIES INPUT
          ----------------

     MOMENTS            FIELD           POTENTIAL          DENSITY
 IEMOM =       1   IEFLD =       0   IEPOT =       0   IEDEN =       0
 WHERE =COMASS     WHERE =NUCLEI     WHERE =NUCLEI     WHERE =NUCLEI  
 OUTPUT=BOTH       OUTPUT=BOTH       OUTPUT=BOTH       OUTPUT=BOTH    
 IEMINT=       0   IEFINT=       0                     IEDINT=       0
                                                       MORB  =       0
          EXTRAPOLATION IN EFFECT
          SOSCF IN EFFECT
 ORBITAL PRINTING OPTION: NPREO=     1    34     2     1

     -------------------------------
     INTEGRAL TRANSFORMATION OPTIONS
     -------------------------------
     NWORD  =            0
     CUTOFF = 1.0E-09     MPTRAN =       0
     DIRTRF =       F     AOINTS =DUP     

          ----------------------
          INTEGRAL INPUT OPTIONS
          ----------------------
 NOPK  =       1 NORDER=       0 SCHWRZ=       F

     ------------------------------------------
     THE POINT GROUP IS C1 , NAXIS= 0, ORDER= 1
     ------------------------------------------

     DIMENSIONS OF THE SYMMETRY SUBSPACES ARE
 A   =   34

 ..... DONE SETTING UP THE RUN .....
 STEP CPU TIME =     0.01 TOTAL CPU TIME =          0.0 (      0.0 MIN)
 TOTAL WALL CLOCK TIME=          0.0 SECONDS, CPU UTILIZATION IS    59.50%


          -----------------------------
          STATIONARY POINT LOCATION RUN
          -----------------------------

 OBTAINING INITIAL HESSIAN, HESS=GUESS   
 CARTESIAN COORDINATE OPTIMIZATION USING BADGER'S RULE FORCE CONSTANT GUESS

          PARAMETERS CONTROLLING GEOMETRY SEARCH ARE
          METHOD =QA                  UPHESS =BFGS    
          NNEG   =         0          NFRZ   =         0
          NSTEP  =       100          IFOLOW =         1
          HESS   =GUESS               RESTAR =         F
          IHREP  =         0          HSSEND =         F
          NPRT   =         0          NPUN   =         0
          OPTTOL = 1.000E-04          RMIN   = 1.500E-03
          RMAX   = 1.000E-01          RLIM   = 7.000E-02
          DXMAX  = 3.000E-01          PURIFY =         F
          MOVIE  =         F          TRUPD  =         T
          TRMAX  = 5.000E-01          TRMIN  = 5.000E-02
          ITBMAT =         5          STPT   =         F
          STSTEP = 1.000E-02          PROJCT=          T

 BEGINNING GEOMETRY SEARCH POINT NSERCH=   0 ...

 COORDINATES OF ALL ATOMS ARE (ANGS)
   ATOM   CHARGE       X              Y              Z
 ------------------------------------------------------------
 O           8.0  -0.5356681405   0.4102108232   0.2677737292
 O           8.0   0.5216806204  -0.3714115994   0.3417874180
 H           1.0  -1.1649740142  -0.0708476537  -0.3283986826
 H           1.0   1.1789615343   0.0320484299  -0.2811624645

          ********************
          1 ELECTRON INTEGRALS
          ********************
 ...... END OF ONE-ELECTRON INTEGRALS ......
 STEP CPU TIME =     0.00 TOTAL CPU TIME =          0.0 (      0.0 MIN)
 TOTAL WALL CLOCK TIME=          0.0 SECONDS, CPU UTILIZATION IS    61.14%

          -------------
          GUESS OPTIONS
          -------------
          GUESS =HUCKEL            NORB  =       0          NORDER=       0
          MIX   =       F          PRTMO =       F          PUNMO =       F
          TOLZ  = 1.0E-08          TOLE  = 1.0E-05
          SYMDEN=       F          PURIFY=       F

 INITIAL GUESS ORBITALS GENERATED BY HUCKEL   ROUTINE.
 HUCKEL GUESS REQUIRES     12084 WORDS.

 SYMMETRIES FOR INITIAL GUESS ORBITALS FOLLOW.   BOTH SET(S).
     9 ORBITALS ARE OCCUPIED (    2 CORE ORBITALS).
     3=A        4=A        5=A        6=A        7=A        8=A        9=A   
    10=A       11=A       12=A       13=A       14=A       15=A       16=A   
    17=A       18=A       19=A   
 ...... END OF INITIAL ORBITAL SELECTION ......
 STEP CPU TIME =     0.00 TOTAL CPU TIME =          0.0 (      0.0 MIN)
 TOTAL WALL CLOCK TIME=          0.0 SECONDS, CPU UTILIZATION IS    64.51%

                    ----------------------
                    AO INTEGRAL TECHNOLOGY
                    ----------------------
     S,P,L SHELL ROTATED AXIS INTEGRALS, REPROGRAMMED BY
        KAZUYA ISHIMURA (IMS) AND JOSE SIERRA (SYNSTAR).
     S,P,D,L SHELL ROTATED AXIS INTEGRALS PROGRAMMED BY
        KAZUYA ISHIMURA (INSTITUTE FOR MOLECULAR SCIENCE).
     S,P,D,F,G SHELL TO TOTAL QUARTET ANGULAR MOMENTUM SUM 5,
        ERIC PROGRAM BY GRAHAM FLETCHER (ELORET AND NASA ADVANCED
        SUPERCOMPUTING DIVISION, AMES RESEARCH CENTER).
     S,P,D,F,G,L SHELL GENERAL RYS QUADRATURE PROGRAMMED BY
        MICHEL DUPUIS (PACIFIC NORTHWEST NATIONAL LABORATORY).

          --------------------
          2 ELECTRON INTEGRALS
          --------------------

 THE -PK- OPTION IS OFF, THE INTEGRALS ARE NOT IN SUPERMATRIX FORM.
 STORING   15000 INTEGRALS/RECORD ON DISK, USING 12 BYTES/INTEGRAL.
 TWO ELECTRON INTEGRAL EVALUATION REQUIRES   90474 WORDS OF MEMORY.
 II,JST,KST,LST =  1  1  1  1 NREC =         1 INTLOC =    1
 II,JST,KST,LST =  2  1  1  1 NREC =         1 INTLOC =    2
 II,JST,KST,LST =  3  1  1  1 NREC =         1 INTLOC =   34
 II,JST,KST,LST =  4  1  1  1 NREC =         1 INTLOC =  214
 II,JST,KST,LST =  5  1  1  1 NREC =         1 INTLOC = 1189
 II,JST,KST,LST =  6  1  1  1 NREC =         1 INTLOC = 3126
 II,JST,KST,LST =  7  1  1  1 NREC =         2 INTLOC =  808
 II,JST,KST,LST =  8  1  1  1 NREC =         3 INTLOC = 7982
 II,JST,KST,LST =  9  1  1  1 NREC =         7 INTLOC = 5769
 II,JST,KST,LST = 10  1  1  1 NREC =         8 INTLOC = 5649
 II,JST,KST,LST = 11  1  1  1 NREC =         9 INTLOC = 7017
 II,JST,KST,LST = 12  1  1  1 NREC =        10 INTLOC = 9969
 TOTAL NUMBER OF NONZERO TWO-ELECTRON INTEGRALS =              164603
         11 INTEGRAL RECORDS WERE STORED ON DISK FILE  8.
  ...... END OF TWO-ELECTRON INTEGRALS .....
 STEP CPU TIME =     0.03 TOTAL CPU TIME =          0.0 (      0.0 MIN)
 TOTAL WALL CLOCK TIME=          0.1 SECONDS, CPU UTILIZATION IS    82.92%

          --------------------------
                 RHF SCF CALCULATION
          --------------------------

     NUCLEAR ENERGY =        39.0844517345
     MAXIT =  200     NPUNCH=    2
     EXTRAP=T  DAMP=F  SHIFT=F  RSTRCT=F  DIIS=F  DEM=F  SOSCF=T
     DENSITY MATRIX CONV=  1.00E-05
     SOSCF WILL OPTIMIZE     225 ORBITAL ROTATIONS, SOGTOL=   0.250
     MEMORY REQUIRED FOR RHF ITERS=     39468 WORDS.

 ITER EX DEM     TOTAL ENERGY        E CHANGE  DENSITY CHANGE     ORB. GRAD
   1  0  0     -150.2992292129  -150.2992292129   0.245615378   0.000000000
          ---------------START SECOND ORDER SCF---------------
   2  1  0     -150.7305227755    -0.4312935626   0.088740112   0.041871492
   3  2  0     -150.7534424802    -0.0229197047   0.037591412   0.019134248
   4  3  0     -150.7559555787    -0.0025130985   0.003951516   0.005095479
   5  4  0     -150.7561454636    -0.0001898849   0.001915598   0.001600131
   6  5  0     -150.7561676967    -0.0000222331   0.001256708   0.000732390
   7  6  0     -150.7561717698    -0.0000040731   0.000153917   0.000109129
   8  7  0     -150.7561719335    -0.0000001637   0.000106523   0.000058168
   9  8  0     -150.7561719666    -0.0000000331   0.000015266   0.000009613
  10  9  0     -150.7561719676    -0.0000000010   0.000004441   0.000002169
  11 10  0     -150.7561719676    -0.0000000001   0.000001241   0.000000492

          -----------------
          DENSITY CONVERGED
          -----------------
     TIME TO FORM FOCK OPERATORS=       0.0 SECONDS (       0.0 SEC/ITER)
     TIME TO SOLVE SCF EQUATIONS=       0.0 SECONDS (       0.0 SEC/ITER)

 FINAL RHF ENERGY IS     -150.7561719676 AFTER  11 ITERATIONS

          ------------
          EIGENVECTORS
          ------------

                      1          2          3          4          5
                  -20.6250   -20.6245    -1.5329    -1.1716    -0.7483
                     A          A          A          A          A   
    1  O  1  S    0.703347  -0.703384  -0.149370   0.149009  -0.004461
    2  O  1  S    0.015123  -0.014742   0.342207  -0.346992   0.015861
    3  O  1  X    0.000537  -0.000158   0.071052   0.121314   0.255992
    4  O  1  Y   -0.001124   0.000824  -0.083571  -0.002399  -0.047056
    5  O  1  Z   -0.000436   0.000488  -0.020407   0.047440   0.304208
    6  O  1  S    0.002655  -0.002577   0.257061  -0.374312  -0.005827
    7  O  1  X   -0.000176   0.000046   0.018858   0.055079   0.139842
    8  O  1  Y    0.000435  -0.000342  -0.033429   0.007563  -0.018273
    9  O  1  Z    0.000101  -0.000317  -0.015654   0.032141   0.178549
   10  O  1 XX   -0.002952   0.002770   0.021954  -0.001704   0.007308
   11  O  1 YY   -0.002795   0.002721   0.013528  -0.003984   0.009320
   12  O  1 ZZ   -0.002677   0.002715   0.001969  -0.012453  -0.018257
   13  O  1 XY    0.000168   0.000040  -0.013598  -0.018319  -0.028713
   14  O  1 XZ   -0.000087   0.000090   0.004424  -0.011324  -0.005765
   15  O  1 YZ   -0.000050   0.000088   0.005467  -0.008003  -0.021549
   16  O  2  S    0.703333   0.703398  -0.149370  -0.149009  -0.004461
   17  O  2  S    0.015123   0.014742   0.342207   0.346992   0.015861
   18  O  2  X   -0.000513  -0.000133  -0.069802   0.123347  -0.269484
   19  O  2  Y    0.001058   0.000755   0.080104  -0.008039   0.084482
   20  O  2  Z   -0.000599  -0.000596  -0.034057  -0.041161   0.283777
   21  O  2  S    0.002655   0.002577   0.257061   0.374312  -0.005827
   22  O  2  X    0.000170   0.000030  -0.018026   0.056512  -0.147800
   23  O  2  Y   -0.000418  -0.000299   0.031121   0.003590   0.040345
   24  O  2  Z    0.000163   0.000360  -0.020610  -0.030290   0.168217
   25  O  2 XX   -0.002957  -0.002777   0.022195   0.002716   0.006650
   26  O  2 YY   -0.002781  -0.002702   0.012081   0.002462   0.013429
   27  O  2 ZZ   -0.002685  -0.002727   0.003175   0.012964  -0.021707
   28  O  2 XY    0.000174  -0.000032  -0.013683   0.017016  -0.028513
   29  O  2 XZ    0.000051   0.000092  -0.001649  -0.014134   0.010847
   30  O  2 YZ    0.000074   0.000085  -0.007610  -0.005785   0.015595
   31  H  3  S    0.000212  -0.000346   0.068785  -0.123760  -0.170645
   32  H  3  S   -0.000204   0.000074  -0.008751  -0.004880  -0.077810
   33  H  4  S    0.000212   0.000346   0.068785   0.123760  -0.170645
   34  H  4  S   -0.000204  -0.000074  -0.008751   0.004880  -0.077810

                      6          7          8          9         10
                   -0.7104    -0.6355    -0.4770    -0.4613     0.2132
                     A          A          A          A          A   
    1  O  1  S   -0.047877   0.036785   0.030931  -0.026691   0.056993
    2  O  1  S    0.113481  -0.085849  -0.062647   0.065814  -0.048988
    3  O  1  X    0.195165   0.304341  -0.145961  -0.100354   0.144058
    4  O  1  Y    0.342824  -0.177614  -0.421241  -0.053124   0.078148
    5  O  1  Z    0.030270  -0.266205   0.136484   0.458828   0.110681
    6  O  1  S    0.174215  -0.168463  -0.170992   0.115568  -0.751281
    7  O  1  X    0.110997   0.193912  -0.123127  -0.091875   0.302086
    8  O  1  Y    0.216555  -0.108050  -0.320125  -0.042028   0.209747
    9  O  1  Z    0.011505  -0.182008   0.108331   0.358891   0.243148
   10  O  1 XX    0.010963   0.003688   0.015657  -0.003396   0.025448
   11  O  1 YY   -0.027033   0.010004   0.014768   0.011801   0.027702
   12  O  1 ZZ    0.001891  -0.001041  -0.006561  -0.017777   0.029930
   13  O  1 XY   -0.004317  -0.027632   0.008999  -0.000064  -0.002327
   14  O  1 XZ   -0.011395  -0.014814   0.012421  -0.014074  -0.005777
   15  O  1 YZ   -0.012482   0.015993   0.006386  -0.010110  -0.011035
   16  O  2  S    0.047877   0.036785   0.030931   0.026691   0.056993
   17  O  2  S   -0.113481  -0.085849  -0.062647  -0.065814  -0.048988
   18  O  2  X    0.197340  -0.291344   0.140798  -0.079442  -0.149191
   19  O  2  Y    0.336791   0.141563   0.435564  -0.111130  -0.063911
   20  O  2  Z   -0.064521  -0.300190   0.088528  -0.452499   0.112994
   21  O  2  S   -0.174215  -0.168463  -0.170992  -0.115568  -0.751282
   22  O  2  X    0.112036  -0.185080   0.118980  -0.075505  -0.313487
   23  O  2  Y    0.213673   0.083550   0.331629  -0.087436  -0.178122
   24  O  2  Z   -0.033771  -0.202901   0.072402  -0.354491   0.253711
   25  O  2 XX   -0.010019   0.002372   0.016639   0.004541   0.024986
   26  O  2 YY    0.023865   0.006216   0.013072  -0.013535   0.030133
   27  O  2 ZZ    0.000332   0.004063  -0.005847   0.018366   0.027962
   28  O  2 XY    0.003463  -0.024736   0.007779  -0.001409  -0.002094
   29  O  2 XZ   -0.012400   0.018233  -0.012300  -0.014743   0.005861
   30  O  2 YZ   -0.016172  -0.018179  -0.008969  -0.005603   0.010938
   31  H  3  S   -0.128610  -0.010325   0.118377  -0.108030   0.053152
   32  H  3  S   -0.064784  -0.016289   0.069486  -0.083886   1.084397
   33  H  4  S    0.128610  -0.010325   0.118377   0.108030   0.053152
   34  H  4  S    0.064784  -0.016289   0.069486   0.083886   1.084398

                     11         12         13         14         15
                    0.2291     0.4147     1.0348     1.0358     1.0651
                     A          A          A          A          A   
    1  O  1  S    0.065968  -0.063868   0.003980   0.019763   0.002484
    2  O  1  S   -0.068598   0.164658  -0.208096  -0.152348  -0.395168
    3  O  1  X    0.015756   0.396265   0.082123  -0.220619   0.128860
    4  O  1  Y    0.166751  -0.200293   0.344603   0.357726  -0.447362
    5  O  1  Z    0.124315   0.076501   0.027244   0.215058   0.188127
    6  O  1  S   -0.861575   0.667486   0.290117   0.727409   0.366370
    7  O  1  X    0.085152   0.916342   0.210631   0.769526  -0.401162
    8  O  1  Y    0.336801  -0.525601  -0.200143  -0.555769   0.670863
    9  O  1  Z    0.271425   0.166890   0.103542   0.017304  -0.121333
   10  O  1 XX    0.040213   0.007192  -0.099173   0.149433  -0.215725
   11  O  1 YY    0.018688   0.021022  -0.039675  -0.004760  -0.172855
   12  O  1 ZZ    0.021968   0.011927  -0.032733  -0.051697  -0.110393
   13  O  1 XY   -0.008471  -0.001036   0.091670  -0.072761   0.122168
   14  O  1 XZ   -0.001250  -0.010546   0.084878   0.076250   0.027522
   15  O  1 YZ   -0.008496   0.011850   0.041561   0.077856   0.055561
   16  O  2  S   -0.065968   0.063868   0.003980  -0.019763  -0.002484
   17  O  2  S    0.068597  -0.164658  -0.208101   0.152341   0.395167
   18  O  2  X    0.021904   0.398762  -0.084278  -0.209525   0.136019
   19  O  2  Y    0.149699  -0.207219  -0.338619   0.326937  -0.467219
   20  O  2  Z   -0.143593  -0.032319   0.066921  -0.268507  -0.123835
   21  O  2  S    0.861574  -0.667486   0.290139  -0.727399  -0.366367
   22  O  2  X    0.098442   0.921477  -0.214581   0.767887  -0.404334
   23  O  2  Y    0.299936  -0.539845   0.211053  -0.551235   0.679661
   24  O  2  Z   -0.307741  -0.056901   0.067610   0.088439   0.016887
   25  O  2 XX   -0.040031  -0.006366  -0.091849  -0.154693   0.212701
   26  O  2 YY   -0.020549  -0.018297  -0.048209   0.022874   0.183356
   27  O  2 ZZ   -0.020288  -0.015478  -0.031519   0.038839   0.102915
   28  O  2 XY    0.008568  -0.000854   0.081722   0.077414  -0.119513
   29  O  2 XZ   -0.003342  -0.010192  -0.099291   0.056209   0.048640
   30  O  2 YZ   -0.008323   0.012733  -0.035803   0.085986   0.039416
   31  H  3  S    0.078152   0.044210   0.738210   0.622566   0.412739
   32  H  3  S    1.110393   0.408282  -0.558966  -0.402507  -0.466184
   33  H  4  S   -0.078152  -0.044210   0.738229  -0.622545  -0.412739
   34  H  4  S   -1.110392  -0.408282  -0.558978   0.402490   0.466184

                     16         17         18         19         20
                    1.0810     1.1633     1.2133     1.2398     1.3413
                     A          A          A          A          A   
    1  O  1  S   -0.030310  -0.023099  -0.004384   0.006671  -0.001773
    2  O  1  S   -0.716335  -0.251192   0.205130  -0.342675  -0.006049
    3  O  1  X   -0.053848  -0.502084  -0.371163   0.308473  -0.485648
    4  O  1  Y   -0.186646  -0.125291  -0.197423  -0.366705  -0.250187
    5  O  1  Z   -0.423410   0.345567   0.437965   0.315914  -0.425586
    6  O  1  S    1.316392   0.406795  -0.214513   0.811611   0.363707
    7  O  1  X    0.026433   0.646753   0.543992  -0.285843   1.122925
    8  O  1  Y    0.156238   0.200102   0.034021   0.569181  -0.006851
    9  O  1  Z    0.320209  -0.354548  -0.729872  -0.329464   0.827857
   10  O  1 XX   -0.283182  -0.172000   0.041895  -0.037032   0.044452
   11  O  1 YY   -0.248723  -0.093573   0.109783  -0.088404   0.042542
   12  O  1 ZZ   -0.231555  -0.025621   0.065549  -0.140567  -0.032842
   13  O  1 XY    0.039368   0.087415  -0.077905  -0.079829  -0.071276
   14  O  1 XZ   -0.054594  -0.011801  -0.018167   0.098280   0.022813
   15  O  1 YZ    0.023378  -0.003072  -0.052879  -0.003890   0.045000
   16  O  2  S   -0.030310  -0.023099   0.004384   0.006671   0.001773
   17  O  2  S   -0.716336  -0.251192  -0.205130  -0.342674   0.006049
   18  O  2  X    0.073677   0.486135  -0.351339  -0.321515  -0.505310
   19  O  2  Y    0.131642   0.169531  -0.252410   0.402884  -0.195650
   20  O  2  Z   -0.440743   0.349478  -0.425912   0.252472   0.431225
   21  O  2  S    1.316393   0.406796   0.214514   0.811610  -0.363707
   22  O  2  X   -0.041488  -0.630460   0.510177   0.298939   1.159548
   23  O  2  Y   -0.114478  -0.245297   0.127819  -0.605510  -0.108438
   24  O  2  Z    0.335881  -0.355506   0.743760  -0.241275  -0.768143
   25  O  2 XX   -0.287186  -0.172187  -0.040105  -0.029882  -0.045746
   26  O  2 YY   -0.253306  -0.091370  -0.120208  -0.088856  -0.031164
   27  O  2 ZZ   -0.222968  -0.027637  -0.056915  -0.147264   0.022757
   28  O  2 XY    0.046734   0.087257   0.077208  -0.091185   0.070980
   29  O  2 XZ    0.046031  -0.007056  -0.026990  -0.081515   0.009870
   30  O  2 YZ   -0.017876   0.016842  -0.041357  -0.008235   0.057838
   31  H  3  S   -0.043090  -0.015735  -0.292810   0.324455   0.026627
   32  H  3  S   -0.233939  -0.124483   0.428549  -0.504712   0.664397
   33  H  4  S   -0.043089  -0.015735   0.292810   0.324455  -0.026627
   34  H  4  S   -0.233940  -0.124483  -0.428549  -0.504712  -0.664397

                     21         22         23         24         25
                    1.4507     1.5826     1.7921     1.8173     1.8954
                     A          A          A          A          A   
    1  O  1  S   -0.042484  -0.082598  -0.015820  -0.010340   0.007812
    2  O  1  S   -0.692595  -1.160192  -0.168552  -0.139109   0.121712
    3  O  1  X    0.218025  -0.099194  -0.061603   0.001820  -0.005885
    4  O  1  Y    0.339133   0.180654  -0.054499   0.047421  -0.039569
    5  O  1  Z    0.296704   0.014505   0.003707  -0.054384   0.009522
    6  O  1  S    1.549032   3.967663   0.634700   0.302557  -0.265450
    7  O  1  X   -0.671813   1.265916   0.177249  -0.110933   0.092305
    8  O  1  Y   -0.773298  -1.165355  -0.244142  -0.180716   0.124378
    9  O  1  Z   -0.487570  -0.102963  -0.040248  -0.130800   0.119638
   10  O  1 XX   -0.227944  -0.451176   0.423626  -0.130378  -0.164044
   11  O  1 YY   -0.245122  -0.213025  -0.519717  -0.267303  -0.260883
   12  O  1 ZZ   -0.148078  -0.308941  -0.045686   0.283262   0.514272
   13  O  1 XY    0.017593  -0.086572   0.158058  -0.093765  -0.310178
   14  O  1 XZ   -0.155297  -0.126432  -0.159131   0.364117  -0.102700
   15  O  1 YZ   -0.006115  -0.161322  -0.209980  -0.380865   0.322566
   16  O  2  S   -0.042484   0.082598   0.015820  -0.010340   0.007812
   17  O  2  S   -0.692595   1.160192   0.168552  -0.139109   0.121712
   18  O  2  X   -0.232338  -0.097902  -0.061528   0.000528   0.005559
   19  O  2  Y   -0.299433   0.177071  -0.054709  -0.053935   0.040474
   20  O  2  Z    0.327015  -0.041797   0.000419  -0.047962   0.004690
   21  O  2  S    1.549032  -3.967663  -0.634700   0.302558  -0.265450
   22  O  2  X    0.695631   1.256496   0.174515   0.117317  -0.098036
   23  O  2  Y    0.707229  -1.139226  -0.236557   0.163006  -0.108483
   24  O  2  Z   -0.550429   0.307532   0.078916  -0.147441   0.130093
   25  O  2 XX   -0.239966   0.461344  -0.410807  -0.101292  -0.172234
   26  O  2 YY   -0.242045   0.179796   0.465489  -0.176241  -0.320147
   27  O  2 ZZ   -0.139134   0.332001   0.087095   0.163115   0.581726
   28  O  2 XY    0.036205   0.077205  -0.167301  -0.159297  -0.284728
   29  O  2 XZ    0.147057  -0.129695  -0.163950  -0.366063   0.102455
   30  O  2 YZ    0.022123  -0.139233  -0.280374   0.440712  -0.212514
   31  H  3  S   -0.350322  -0.211790  -0.101585  -0.176014   0.146640
   32  H  3  S   -0.626027  -0.179855  -0.001392  -0.082727   0.083839
   33  H  4  S   -0.350322   0.211790   0.101585  -0.176014   0.146640
   34  H  4  S   -0.626027   0.179855   0.001392  -0.082727   0.083839

                     26         27         28         29         30
                    2.1773     2.5567     2.6784     2.7983     2.8123
                     A          A          A          A          A   
    1  O  1  S    0.009670  -0.017801   0.054752   0.002176  -0.001673
    2  O  1  S    0.112528  -0.474715   0.646145   0.049523   0.007040
    3  O  1  X    0.001490  -0.294716   0.007275  -0.028374  -0.005791
    4  O  1  Y   -0.005199   0.257273  -0.051495  -0.043356  -0.007062
    5  O  1  Z   -0.013070  -0.008571  -0.064865  -0.004899  -0.045634
    6  O  1  S   -0.392017   0.614277  -2.247401  -0.119522   0.011607
    7  O  1  X   -0.053957   0.098527  -0.320769   0.301274   0.046956
    8  O  1  Y    0.136277  -0.344445   0.800610   0.368207   0.016687
    9  O  1  Z    0.043830  -0.101547   0.522737   0.025083   0.431834
   10  O  1 XX    0.187156   0.164968  -0.126626   0.772293  -0.049080
   11  O  1 YY    0.472082  -0.086660   0.165841  -0.768207  -0.050888
   12  O  1 ZZ   -0.579515  -0.441870   0.311608   0.012585   0.086626
   13  O  1 XY    0.314008  -0.387195  -0.223012   0.263698   0.061677
   14  O  1 XZ   -0.095489   0.351712  -0.404234  -0.048960   0.741430
   15  O  1 YZ   -0.187681   0.263521  -0.510632   0.040252  -0.552699
   16  O  2  S   -0.009670  -0.017801  -0.054752   0.002176   0.001673
   17  O  2  S   -0.112528  -0.474715  -0.646145   0.049521  -0.007040
   18  O  2  X    0.000876   0.294050   0.004154   0.028694  -0.007891
   19  O  2  Y   -0.003497  -0.255427  -0.042839   0.042468  -0.001239
   20  O  2  Z    0.013678   0.037573   0.071132  -0.009052   0.045849
   21  O  2  S    0.392017   0.614278   2.247401  -0.119518  -0.011606
   22  O  2  X   -0.051502  -0.092783  -0.294223  -0.303176   0.066684
   23  O  2  Y    0.129467   0.328513   0.726978  -0.362933  -0.038033
   24  O  2  Z   -0.063165  -0.148771  -0.634081   0.057749  -0.427868
   25  O  2 XX   -0.179547   0.189613   0.158900   0.768161  -0.009993
   26  O  2 YY   -0.497684  -0.151895  -0.278496  -0.763071  -0.071488
   27  O  2 ZZ    0.597508  -0.401281  -0.231227   0.011581   0.094823
   28  O  2 XY   -0.320865  -0.413086   0.194772   0.269248   0.058399
   29  O  2 XZ   -0.096193  -0.268902  -0.408884   0.055031   0.742454
   30  O  2 YZ   -0.043881  -0.326699  -0.508269   0.086804  -0.550651
   31  H  3  S    0.104382  -0.259721   0.967996   0.033654  -0.021185
   32  H  3  S    0.035766  -0.086055   0.048613   0.074710   0.070291
   33  H  4  S   -0.104382  -0.259721  -0.967997   0.033652   0.021184
   34  H  4  S   -0.035766  -0.086055  -0.048614   0.074710  -0.070291

                     31         32         33         34
                    2.8763     3.2397     3.8591     4.0770
                     A          A          A          A   
    1  O  1  S    0.017254  -0.079566  -0.325305  -0.353278
    2  O  1  S   -0.039783  -0.520878   0.277184   0.014554
    3  O  1  X   -0.215310   0.269494   0.053562  -0.111869
    4  O  1  Y    0.082437  -0.215459   0.028514   0.151153
    5  O  1  Z   -0.029993   0.009239   0.058442   0.021744
    6  O  1  S   -0.324879   3.102706   2.146783   3.718387
    7  O  1  X    0.536901   1.645446  -0.094434   0.459678
    8  O  1  Y    0.265039  -1.189979  -0.166178  -0.570200
    9  O  1  Z    0.263276   0.137091  -0.146991  -0.118821
   10  O  1 XX    0.123743   0.569419  -0.990428  -1.189622
   11  O  1 YY   -0.053936   0.011343  -1.015013  -1.222984
   12  O  1 ZZ   -0.129320  -0.663350  -1.111598  -1.211568
   13  O  1 XY   -0.443760  -1.056118  -0.115850   0.034838
   14  O  1 XZ   -0.492898   0.107991   0.026873   0.028622
   15  O  1 YZ   -0.474158  -0.075518  -0.015029   0.061648
   16  O  2  S    0.017254   0.079566  -0.325305   0.353278
   17  O  2  S   -0.039783   0.520878   0.277184  -0.014554
   18  O  2  X    0.216215   0.269008  -0.056258  -0.110319
   19  O  2  Y   -0.084946  -0.214108  -0.021034   0.146853
   20  O  2  Z   -0.009437   0.030460   0.059076  -0.045811
   21  O  2  S   -0.324877  -3.102706   2.146783  -3.718387
   22  O  2  X   -0.549137   1.646524   0.101533   0.452110
   23  O  2  Y   -0.231099  -1.192968   0.146485  -0.549207
   24  O  2  Z    0.269933   0.090126  -0.162395   0.210995
   25  O  2 XX    0.081910  -0.570046  -0.989143   1.187217
   26  O  2 YY    0.046185  -0.011609  -1.013888   1.236066
   27  O  2 ZZ   -0.187609   0.664244  -1.114008   1.200892
   28  O  2 XY   -0.397605   1.057179  -0.118141  -0.033708
   29  O  2 XZ    0.560397  -0.092213  -0.005419   0.032050
   30  O  2 YZ    0.431856   0.073132  -0.004909   0.056625
   31  H  3  S    0.810309   0.013263   0.092729  -0.030661
   32  H  3  S   -0.031244   0.029679  -0.479667  -0.357844
   33  H  4  S    0.810308  -0.013263   0.092729   0.030661
   34  H  4  S   -0.031244  -0.029679  -0.479667   0.357844
 ...... END OF RHF CALCULATION ......
 STEP CPU TIME =     0.04 TOTAL CPU TIME =          0.1 (      0.0 MIN)
 TOTAL WALL CLOCK TIME=          0.1 SECONDS, CPU UTILIZATION IS    89.46%

     ----------------------------------------------------------------
     PROPERTY VALUES FOR THE RHF   SELF-CONSISTENT FIELD WAVEFUNCTION
     ----------------------------------------------------------------

          -----------------
          ENERGY COMPONENTS
          -----------------

         WAVEFUNCTION NORMALIZATION =       1.0000000000

                ONE ELECTRON ENERGY =    -285.7084703831
                TWO ELECTRON ENERGY =      95.8678466810
           NUCLEAR REPULSION ENERGY =      39.0844517345
                                      ------------------
                       TOTAL ENERGY =    -150.7561719676

 ELECTRON-ELECTRON POTENTIAL ENERGY =      95.8678466810
  NUCLEUS-ELECTRON POTENTIAL ENERGY =    -436.1335803441
   NUCLEUS-NUCLEUS POTENTIAL ENERGY =      39.0844517345
                                      ------------------
             TOTAL POTENTIAL ENERGY =    -301.1812819286
               TOTAL KINETIC ENERGY =     150.4251099610
                 VIRIAL RATIO (V/T) =       2.0022008427

          ---------------------------------------
          MULLIKEN AND LOWDIN POPULATION ANALYSES
          ---------------------------------------

     ATOMIC MULLIKEN POPULATION IN EACH MOLECULAR ORBITAL

                      1          2          3          4          5

                  2.000000   2.000000   2.000000   2.000000   2.000000

    1             1.000036   0.999969   0.968384   0.895759   0.810889
    2             0.999996   1.000010   0.968384   0.895759   0.810889
    3            -0.000016   0.000011   0.031616   0.104241   0.189111
    4            -0.000016   0.000011   0.031616   0.104241   0.189111

                      6          7          8          9

                  2.000000   2.000000   2.000000   2.000000

    1             0.897091   0.997388   0.938204   0.941820
    2             0.897091   0.997388   0.938204   0.941820
    3             0.102909   0.002612   0.061796   0.058180
    4             0.102909   0.002612   0.061796   0.058180

               ----- POPULATIONS IN EACH AO -----
                             MULLIKEN      LOWDIN
              1  O  1  S      1.99544     1.97729
              2  O  1  S      0.92461     0.72253
              3  O  1  X      0.75872     0.70953
              4  O  1  Y      0.97287     0.93386
              5  O  1  Z      1.10351     1.06607
              6  O  1  S      0.88168     0.46583
              7  O  1  X      0.42303     0.50174
              8  O  1  Y      0.59476     0.65594
              9  O  1  Z      0.69565     0.71380
             10  O  1 XX      0.03122     0.18985
             11  O  1 YY      0.01372     0.18027
             12  O  1 ZZ      0.01392     0.17751
             13  O  1 XY      0.02207     0.03404
             14  O  1 XZ      0.01115     0.02531
             15  O  1 YZ      0.00719     0.01103
             16  O  2  S      1.99544     1.97729
             17  O  2  S      0.92461     0.72252
             18  O  2  X      0.74804     0.69783
             19  O  2  Y      0.99545     0.95858
             20  O  2  Z      1.09161     1.05312
             21  O  2  S      0.88168     0.46581
             22  O  2  X      0.41542     0.49513
             23  O  2  Y      0.60642     0.66401
             24  O  2  Z      0.69160     0.71237
             25  O  2 XX      0.03228     0.19099
             26  O  2 YY      0.01227     0.17869
             27  O  2 ZZ      0.01425     0.17802
             28  O  2 XY      0.02030     0.03159
             29  O  2 XZ      0.01344     0.02797
             30  O  2 YZ      0.00673     0.01069
             31  H  3  S      0.45510     0.42845
             32  H  3  S      0.09536     0.20685
             33  H  4  S      0.45510     0.42864
             34  H  4  S      0.09536     0.20686

          ----- MULLIKEN ATOMIC OVERLAP POPULATIONS -----
          (OFF-DIAGONAL ELEMENTS NEED TO BE MULTIPLIED BY 2)

             1           2           3           4

    1    8.1949535
    2    0.0355705   8.1949536
    3    0.2563204  -0.0373050   0.3308328
    4   -0.0373050   0.2563203   0.0006124   0.3308328

          TOTAL MULLIKEN AND LOWDIN ATOMIC POPULATIONS
       ATOM         MULL.POP.    CHARGE          LOW.POP.     CHARGE
    1 O             8.449539   -0.449539         8.364608   -0.364608
    2 O             8.449539   -0.449539         8.364594   -0.364594
    3 H             0.550461    0.449539         0.635298    0.364702
    4 H             0.550461    0.449539         0.635500    0.364500

          -------------------------------
          BOND ORDER AND VALENCE ANALYSIS     BOND ORDER THRESHOLD=0.050
          -------------------------------

                   BOND                       BOND                       BOND
  ATOM PAIR DIST  ORDER      ATOM PAIR DIST  ORDER      ATOM PAIR DIST  ORDER
    1   2  1.317  0.918        1   3  0.991  0.762        2   4  0.991  0.762

                       TOTAL       BONDED        FREE
      ATOM            VALENCE     VALENCE     VALENCE
    1 O                 1.683       1.683       0.000
    2 O                 1.683       1.683      -0.000
    3 H                 0.766       0.766       0.000
    4 H                 0.766       0.766      -0.000

          ---------------------
          ELECTROSTATIC MOMENTS
          ---------------------

 POINT   1           X           Y           Z (BOHR)    CHARGE
                -0.011650    0.032314    0.507674        0.00 (A.U.)
         DX          DY          DZ         /D/  (DEBYE)
     0.053634   -0.148772   -2.337308    2.342652
 ...... END OF PROPERTY EVALUATION ......
 STEP CPU TIME =     0.00 TOTAL CPU TIME =          0.1 (      0.0 MIN)
 TOTAL WALL CLOCK TIME=          0.1 SECONDS, CPU UTILIZATION IS    89.82%

 BEGINNING ONE ELECTRON GRADIENT...
 ..... END OF 1-ELECTRON GRADIENT ......
 STEP CPU TIME =     0.00 TOTAL CPU TIME =          0.1 (      0.0 MIN)
 TOTAL WALL CLOCK TIME=          0.1 SECONDS, CPU UTILIZATION IS    90.12%

          ----------------------
          GRADIENT OF THE ENERGY
          ----------------------

 THE MINIMUM MEMORY REQUIRED FOR THIS RUN IS      75885 WORDS.
 USING    1051405 WORDS FOR 2E- DERIVATIVE INTEGRAL CONTRIBUTIONS.
 THE COARSE/FINE SCHWARZ SCREENINGS SKIPPED            0/           0 BLOCKS.
 THE NUMBER OF GRADIENT INTEGRAL BLOCKS COMPUTED WAS      2959
 ...... END OF 2-ELECTRON GRADIENT ......
 STEP CPU TIME =     0.05 TOTAL CPU TIME =          0.1 (      0.0 MIN)
 TOTAL WALL CLOCK TIME=          0.1 SECONDS, CPU UTILIZATION IS    93.25%

          NSERCH=  0     ENERGY=    -150.7561720

                                 -----------------------
                                 GRADIENT (HARTREE/BOHR)
                                 -----------------------
        ATOM     ZNUC       DE/DX         DE/DY         DE/DZ
 --------------------------------------------------------------
    1  O            8.0     0.0837065    -0.0232203     0.0289235
    2  O            8.0    -0.0848727     0.0264548     0.0218933
    3  H            1.0    -0.0245185    -0.0196226    -0.0248383
    4  H            1.0     0.0256846     0.0163881    -0.0259785

          MAXIMUM GRADIENT = 0.0848727    RMS GRADIENT = 0.0407956

 NSERCH:   0  E=     -150.7561719676  GRAD. MAX=  0.0848727  R.M.S.=  0.0407956

          FORCE CONSTANT MATRIX NOT UPDATED --- TAKING FIRST STEP
          MIN SEARCH, CORRECT HESSIAN, TRYING PURE NR STEP
               NR STEP HAS LENGTH         =   0.464664
          TRIM/QA LAMBDA FOR NON-TS MODES =  -0.00475162
          TRIM/QA STEP HAS LENGTH         =   0.300000
          RADIUS OF STEP TAKEN=   0.30000  CURRENT TRUST RADIUS=   0.30000

 BEGINNING GEOMETRY SEARCH POINT NSERCH=   1 ...

 COORDINATES OF ALL ATOMS ARE (ANGS)
   ATOM   CHARGE       X              Y              Z
 ------------------------------------------------------------
 O           8.0  -0.5627704115   0.4548282622   0.1972036545
 O           8.0   0.5518488553  -0.4245332390   0.2787528893
 H           1.0  -1.1819701709  -0.0797705298  -0.2611126082
 H           1.0   1.1928917271   0.0494755066  -0.2148439356

          INTERNUCLEAR DISTANCES (ANGS.)
          ------------------------------

                1 O          2 O          3 H          4 H     

   1 O       0.0000000    1.4220770 *  0.9376876 *  1.8483624 *
   2 O       1.4220770 *  0.0000000    1.8483627 *  0.9376876 *
   3 H       0.9376876 *  1.8483627 *  0.0000000    2.3788263 *
   4 H       1.8483624 *  0.9376876 *  2.3788263 *  0.0000000  

  * ... LESS THAN  3.000

 ...... END OF ONE-ELECTRON INTEGRALS ......
 STEP CPU TIME =     0.00 TOTAL CPU TIME =          0.1 (      0.0 MIN)
 TOTAL WALL CLOCK TIME=          0.1 SECONDS, CPU UTILIZATION IS    93.29%
 TOTAL NUMBER OF NONZERO TWO-ELECTRON INTEGRALS =              164571
         11 INTEGRAL RECORDS WERE STORED ON DISK FILE  8.
  ...... END OF TWO-ELECTRON INTEGRALS .....
 STEP CPU TIME =     0.02 TOTAL CPU TIME =          0.2 (      0.0 MIN)
 TOTAL WALL CLOCK TIME=          0.2 SECONDS, CPU UTILIZATION IS    93.97%

          --------------------------
                 RHF SCF CALCULATION
          --------------------------
     DENSITY MATRIX CONV=  2.00E-04

 ITER EX DEM     TOTAL ENERGY        E CHANGE  DENSITY CHANGE     ORB. GRAD
          ---------------START SECOND ORDER SCF---------------
   1  0  0     -150.7494396250  -150.7494396250   0.030685830   0.025066694
   2  1  0     -150.7626088962    -0.0131692711   0.013682720   0.008013919
   3  2  0     -150.7639684135    -0.0013595174   0.005054305   0.002131698
   4  3  0     -150.7640323916    -0.0000639781   0.002563224   0.000753080
   5  4  0     -150.7640449173    -0.0000125257   0.000260879   0.000262862
   6  5  0     -150.7640456025    -0.0000006851   0.000161638   0.000135623
   7  6  0     -150.7640457491    -0.0000001466   0.000096117   0.000061846
   8  7  0     -150.7640457851    -0.0000000360   0.000045648   0.000019533

          -----------------
          DENSITY CONVERGED
          -----------------
     TIME TO FORM FOCK OPERATORS=       0.0 SECONDS (       0.0 SEC/ITER)
     TIME TO SOLVE SCF EQUATIONS=       0.0 SECONDS (       0.0 SEC/ITER)

 FINAL RHF ENERGY IS     -150.7640457851 AFTER   8 ITERATIONS
 ...... END OF RHF CALCULATION ......
 STEP CPU TIME =     0.02 TOTAL CPU TIME =          0.2 (      0.0 MIN)
 TOTAL WALL CLOCK TIME=          0.2 SECONDS, CPU UTILIZATION IS    94.74%
 ..... END OF 1-ELECTRON GRADIENT ......
 STEP CPU TIME =     0.00 TOTAL CPU TIME =          0.2 (      0.0 MIN)
 TOTAL WALL CLOCK TIME=          0.2 SECONDS, CPU UTILIZATION IS    94.81%
 ...... END OF 2-ELECTRON GRADIENT ......
 STEP CPU TIME =     0.04 TOTAL CPU TIME =          0.2 (      0.0 MIN)
 TOTAL WALL CLOCK TIME=          0.2 SECONDS, CPU UTILIZATION IS    95.80%

          NSERCH=  1     ENERGY=    -150.7640458

                                 -----------------------
                                 GRADIENT (HARTREE/BOHR)
                                 -----------------------
        ATOM     ZNUC       DE/DX         DE/DY         DE/DZ
 --------------------------------------------------------------
    1  O            8.0    -0.0229894     0.0037045    -0.0076031
    2  O            8.0     0.0233018    -0.0045713    -0.0060141
    3  H            1.0     0.0094288     0.0075831     0.0065735
    4  H            1.0    -0.0097413    -0.0067163     0.0070437

          MAXIMUM GRADIENT = 0.0233018    RMS GRADIENT = 0.0114721

 NSERCH:   1  E=     -150.7640457851  GRAD. MAX=  0.0233018  R.M.S.=  0.0114721

          HESSIAN UPDATED USING THE BFGS FORMULA
             ACTUAL ENERGY CHANGE WAS  -0.0078738174
          PREDICTED ENERGY CHANGE WAS  -0.0123558288 RATIO=  0.637
          MIN SEARCH, CORRECT HESSIAN, TRYING PURE NR STEP
               NR STEP HAS LENGTH         =   0.445641
          TRIM/QA LAMBDA FOR NON-TS MODES =  -0.00300521
          TRIM/QA STEP HAS LENGTH         =   0.300000
          RADIUS OF STEP TAKEN=   0.30000  CURRENT TRUST RADIUS=   0.30000

 BEGINNING GEOMETRY SEARCH POINT NSERCH=   2 ...

 COORDINATES OF ALL ATOMS ARE (ANGS)
   ATOM   CHARGE       X              Y              Z
 ------------------------------------------------------------
 O           8.0  -0.5288385451   0.4824112027   0.1389111408
 O           8.0   0.5205352541  -0.4593790958   0.2229366607
 H           1.0  -1.2392610896  -0.1059154424  -0.2034475581
 H           1.0   1.2475643806   0.0828833355  -0.1584002433

          INTERNUCLEAR DISTANCES (ANGS.)
          ------------------------------

                1 O          2 O          3 H          4 H     

   1 O       0.0000000    1.4125207 *  0.9838892 *  1.8448913 *
   2 O       1.4125207 *  0.0000000    1.8448911 *  0.9838891 *
   3 H       0.9838892 *  1.8448911 *  0.0000000    2.4943887 *
   4 H       1.8448913 *  0.9838891 *  2.4943887 *  0.0000000  

  * ... LESS THAN  3.000

 ...... END OF ONE-ELECTRON INTEGRALS ......
 STEP CPU TIME =     0.00 TOTAL CPU TIME =          0.2 (      0.0 MIN)
 TOTAL WALL CLOCK TIME=          0.2 SECONDS, CPU UTILIZATION IS    95.82%
 TOTAL NUMBER OF NONZERO TWO-ELECTRON INTEGRALS =              164571
         11 INTEGRAL RECORDS WERE STORED ON DISK FILE  8.
  ...... END OF TWO-ELECTRON INTEGRALS .....
 STEP CPU TIME =     0.02 TOTAL CPU TIME =          0.2 (      0.0 MIN)
 TOTAL WALL CLOCK TIME=          0.2 SECONDS, CPU UTILIZATION IS    96.08%

          --------------------------
                 RHF SCF CALCULATION
          --------------------------
     DENSITY MATRIX CONV=  5.00E-05

 ITER EX DEM     TOTAL ENERGY        E CHANGE  DENSITY CHANGE     ORB. GRAD
          ---------------START SECOND ORDER SCF---------------
   1  0  0     -150.7522030262  -150.7522030262   0.042885245   0.026946044
   2  1  0     -150.7602315372    -0.0080285110   0.019573284   0.011408760
   3  2  0     -150.7614140254    -0.0011824882   0.005215534   0.002163712
   4  3  0     -150.7615031524    -0.0000891270   0.003243098   0.001096538
   5  4  0     -150.7615193769    -0.0000162245   0.000690956   0.000229557
   6  5  0     -150.7615202397    -0.0000008627   0.000199109   0.000066093
   7  6  0     -150.7615203219    -0.0000000823   0.000034486   0.000024928
   8  7  0     -150.7615203311    -0.0000000092   0.000020636   0.000013871
   9  8  0     -150.7615203331    -0.0000000020   0.000010688   0.000005356

          -----------------
          DENSITY CONVERGED
          -----------------
     TIME TO FORM FOCK OPERATORS=       0.0 SECONDS (       0.0 SEC/ITER)
     TIME TO SOLVE SCF EQUATIONS=       0.0 SECONDS (       0.0 SEC/ITER)

 FINAL RHF ENERGY IS     -150.7615203331 AFTER   9 ITERATIONS
 ...... END OF RHF CALCULATION ......
 STEP CPU TIME =     0.03 TOTAL CPU TIME =          0.3 (      0.0 MIN)
 TOTAL WALL CLOCK TIME=          0.3 SECONDS, CPU UTILIZATION IS    96.45%
 ..... END OF 1-ELECTRON GRADIENT ......
 STEP CPU TIME =     0.00 TOTAL CPU TIME =          0.3 (      0.0 MIN)
 TOTAL WALL CLOCK TIME=          0.3 SECONDS, CPU UTILIZATION IS    96.49%
 ...... END OF 2-ELECTRON GRADIENT ......
 STEP CPU TIME =     0.04 TOTAL CPU TIME =          0.3 (      0.0 MIN)
 TOTAL WALL CLOCK TIME=          0.3 SECONDS, CPU UTILIZATION IS    96.96%

          NSERCH=  2     ENERGY=    -150.7615203

                                 -----------------------
                                 GRADIENT (HARTREE/BOHR)
                                 -----------------------
        ATOM     ZNUC       DE/DX         DE/DY         DE/DZ
 --------------------------------------------------------------
    1  O            8.0     0.0248120     0.0325337     0.0111789
    2  O            8.0    -0.0253913    -0.0309268     0.0140661
    3  H            1.0    -0.0222686    -0.0254103    -0.0115739
    4  H            1.0     0.0228479     0.0238033    -0.0136711

          MAXIMUM GRADIENT = 0.0325337    RMS GRADIENT = 0.0226369

 NSERCH:   2  E=     -150.7615203331  GRAD. MAX=  0.0325337  R.M.S.=  0.0226369

          HESSIAN UPDATED USING THE BFGS FORMULA
             ACTUAL ENERGY CHANGE WAS   0.0025254520
          PREDICTED ENERGY CHANGE WAS  -0.0012578698 RATIO= -2.008
          MIN SEARCH, CORRECT HESSIAN, TRYING PURE NR STEP
               NR STEP HAS LENGTH         =   0.357773
          TRIM/QA LAMBDA FOR NON-TS MODES =  -0.05573221
          TRIM/QA STEP HAS LENGTH         =   0.150000
          RADIUS OF STEP TAKEN=   0.15000  CURRENT TRUST RADIUS=   0.15000

 BEGINNING GEOMETRY SEARCH POINT NSERCH=   3 ...

 COORDINATES OF ALL ATOMS ARE (ANGS)
   ATOM   CHARGE       X              Y              Z
 ------------------------------------------------------------
 O           8.0  -0.5446529393   0.4477376899   0.1639007230
 O           8.0   0.5352922434  -0.4217725257   0.2440270598
 H           1.0  -1.2304138672  -0.0857114292  -0.2276760147
 H           1.0   1.2397745632   0.0597462650  -0.1802517681

          INTERNUCLEAR DISTANCES (ANGS.)
          ------------------------------

                1 O          2 O          3 H          4 H     

   1 O       0.0000000    1.3887944 *  0.9529787 *  1.8582680 *
   2 O       1.3887944 *  0.0000000    1.8582677 *  0.9529786 *
   3 H       0.9529787 *  1.8582677 *  0.0000000    2.4749218 *
   4 H       1.8582680 *  0.9529786 *  2.4749218 *  0.0000000  

  * ... LESS THAN  3.000

 ...... END OF ONE-ELECTRON INTEGRALS ......
 STEP CPU TIME =     0.00 TOTAL CPU TIME =          0.3 (      0.0 MIN)
 TOTAL WALL CLOCK TIME=          0.3 SECONDS, CPU UTILIZATION IS    96.97%
 TOTAL NUMBER OF NONZERO TWO-ELECTRON INTEGRALS =              164569
         11 INTEGRAL RECORDS WERE STORED ON DISK FILE  8.
  ...... END OF TWO-ELECTRON INTEGRALS .....
 STEP CPU TIME =     0.02 TOTAL CPU TIME =          0.3 (      0.0 MIN)
 TOTAL WALL CLOCK TIME=          0.3 SECONDS, CPU UTILIZATION IS    97.11%

          --------------------------
                 RHF SCF CALCULATION
          --------------------------
     DENSITY MATRIX CONV=  2.00E-04

 ITER EX DEM     TOTAL ENERGY        E CHANGE  DENSITY CHANGE     ORB. GRAD
          ---------------START SECOND ORDER SCF---------------
   1  0  0     -150.7608644963  -150.7608644963   0.020796040   0.015583001
   2  1  0     -150.7638679558    -0.0030034594   0.008308953   0.005494253
   3  2  0     -150.7642656904    -0.0003977346   0.003301798   0.001394985
   4  3  0     -150.7642977504    -0.0000320601   0.001312776   0.000596855
   5  4  0     -150.7643039305    -0.0000061801   0.000435861   0.000225259
   6  5  0     -150.7643045978    -0.0000006673   0.000179340   0.000109628
   7  6  0     -150.7643047245    -0.0000001267   0.000064806   0.000035822
   8  7  0     -150.7643047432    -0.0000000187   0.000022526   0.000009430

          -----------------
          DENSITY CONVERGED
          -----------------
     TIME TO FORM FOCK OPERATORS=       0.0 SECONDS (       0.0 SEC/ITER)
     TIME TO SOLVE SCF EQUATIONS=       0.0 SECONDS (       0.0 SEC/ITER)

 FINAL RHF ENERGY IS     -150.7643047432 AFTER   8 ITERATIONS
 ...... END OF RHF CALCULATION ......
 STEP CPU TIME =     0.02 TOTAL CPU TIME =          0.4 (      0.0 MIN)
 TOTAL WALL CLOCK TIME=          0.4 SECONDS, CPU UTILIZATION IS    97.29%
 ..... END OF 1-ELECTRON GRADIENT ......
 STEP CPU TIME =     0.00 TOTAL CPU TIME =          0.4 (      0.0 MIN)
 TOTAL WALL CLOCK TIME=          0.4 SECONDS, CPU UTILIZATION IS    97.31%
 ...... END OF 2-ELECTRON GRADIENT ......
 STEP CPU TIME =     0.05 TOTAL CPU TIME =          0.4 (      0.0 MIN)
 TOTAL WALL CLOCK TIME=          0.4 SECONDS, CPU UTILIZATION IS    97.60%

          NSERCH=  3     ENERGY=    -150.7643047

                                 -----------------------
                                 GRADIENT (HARTREE/BOHR)
                                 -----------------------
        ATOM     ZNUC       DE/DX         DE/DY         DE/DZ
 --------------------------------------------------------------
    1  O            8.0     0.0059914    -0.0070519     0.0010205
    2  O            8.0    -0.0060112     0.0071070    -0.0001562
    3  H            1.0    -0.0065149     0.0005696    -0.0006199
    4  H            1.0     0.0065347    -0.0006248    -0.0002444

          MAXIMUM GRADIENT = 0.0071070    RMS GRADIENT = 0.0046515

 NSERCH:   3  E=     -150.7643047432  GRAD. MAX=  0.0071070  R.M.S.=  0.0046515

          HESSIAN UPDATED USING THE BFGS FORMULA
             ACTUAL ENERGY CHANGE WAS  -0.0027844101
          PREDICTED ENERGY CHANGE WAS  -0.0037848635 RATIO=  0.736
          MIN SEARCH, CORRECT HESSIAN, TRYING PURE NR STEP
               NR STEP HAS LENGTH         =   0.206968
          TRIM/QA LAMBDA FOR NON-TS MODES =  -0.01180265
          TRIM/QA STEP HAS LENGTH         =   0.150000
          RADIUS OF STEP TAKEN=   0.15000  CURRENT TRUST RADIUS=   0.15000

 BEGINNING GEOMETRY SEARCH POINT NSERCH=   4 ...

 COORDINATES OF ALL ATOMS ARE (ANGS)
   ATOM   CHARGE       X              Y              Z
 ------------------------------------------------------------
 O           8.0  -0.5485150196   0.4619515854   0.1811303601
 O           8.0   0.5383220225  -0.4336774740   0.2630776378
 H           1.0  -1.1820218982  -0.0885373296  -0.2446088150
 H           1.0   1.1922148953   0.0602632182  -0.1995991828

          INTERNUCLEAR DISTANCES (ANGS.)
          ------------------------------

                1 O          2 O          3 H          4 H     

   1 O       0.0000000    1.4107025 *  0.9410754 *  1.8265950 *
   2 O       1.4107025 *  0.0000000    1.8265953 *  0.9410755 *
   3 H       0.9410754 *  1.8265953 *  0.0000000    2.3793209 *
   4 H       1.8265950 *  0.9410755 *  2.3793209 *  0.0000000  

  * ... LESS THAN  3.000

 ...... END OF ONE-ELECTRON INTEGRALS ......
 STEP CPU TIME =     0.00 TOTAL CPU TIME =          0.4 (      0.0 MIN)
 TOTAL WALL CLOCK TIME=          0.4 SECONDS, CPU UTILIZATION IS    97.60%
 TOTAL NUMBER OF NONZERO TWO-ELECTRON INTEGRALS =              164571
         11 INTEGRAL RECORDS WERE STORED ON DISK FILE  8.
  ...... END OF TWO-ELECTRON INTEGRALS .....
 STEP CPU TIME =     0.02 TOTAL CPU TIME =          0.4 (      0.0 MIN)
 TOTAL WALL CLOCK TIME=          0.4 SECONDS, CPU UTILIZATION IS    97.69%

          --------------------------
                 RHF SCF CALCULATION
          --------------------------
     DENSITY MATRIX CONV=  1.00E-05

 ITER EX DEM     TOTAL ENERGY        E CHANGE  DENSITY CHANGE     ORB. GRAD
          ---------------START SECOND ORDER SCF---------------
   1  0  0     -150.7629773079  -150.7629773079   0.013339130   0.010965617
   2  1  0     -150.7641459879    -0.0011686801   0.004929896   0.003808154
   3  2  0     -150.7642676019    -0.0001216140   0.001230007   0.001023338
   4  3  0     -150.7642780640    -0.0000104621   0.000940415   0.000590130
   5  4  0     -150.7642815009    -0.0000034369   0.000239667   0.000125672
   6  5  0     -150.7642818369    -0.0000003361   0.000118622   0.000059655
   7  6  0     -150.7642819085    -0.0000000716   0.000058681   0.000022857
   8  7  0     -150.7642819153    -0.0000000068   0.000016916   0.000006227
   9  8  0     -150.7642819160    -0.0000000007   0.000002015   0.000001075
  10  9  0     -150.7642819160    -0.0000000000   0.000000461   0.000000287

          -----------------
          DENSITY CONVERGED
          -----------------
     TIME TO FORM FOCK OPERATORS=       0.0 SECONDS (       0.0 SEC/ITER)
     TIME TO SOLVE SCF EQUATIONS=       0.0 SECONDS (       0.0 SEC/ITER)

 FINAL RHF ENERGY IS     -150.7642819160 AFTER  10 ITERATIONS
 ...... END OF RHF CALCULATION ......
 STEP CPU TIME =     0.03 TOTAL CPU TIME =          0.4 (      0.0 MIN)
 TOTAL WALL CLOCK TIME=          0.5 SECONDS, CPU UTILIZATION IS    97.83%
 ..... END OF 1-ELECTRON GRADIENT ......
 STEP CPU TIME =     0.00 TOTAL CPU TIME =          0.5 (      0.0 MIN)
 TOTAL WALL CLOCK TIME=          0.5 SECONDS, CPU UTILIZATION IS    97.84%
 ...... END OF 2-ELECTRON GRADIENT ......
 STEP CPU TIME =     0.04 TOTAL CPU TIME =          0.5 (      0.0 MIN)
 TOTAL WALL CLOCK TIME=          0.5 SECONDS, CPU UTILIZATION IS    98.03%

          NSERCH=  4     ENERGY=    -150.7642819

                                 -----------------------
                                 GRADIENT (HARTREE/BOHR)
                                 -----------------------
        ATOM     ZNUC       DE/DX         DE/DY         DE/DZ
 --------------------------------------------------------------
    1  O            8.0    -0.0101107     0.0050498    -0.0047488
    2  O            8.0     0.0103023    -0.0055816    -0.0036036
    3  H            1.0     0.0091486     0.0022622     0.0042613
    4  H            1.0    -0.0093402    -0.0017303     0.0040911

          MAXIMUM GRADIENT = 0.0103023    RMS GRADIENT = 0.0065479

 NSERCH:   4  E=     -150.7642819160  GRAD. MAX=  0.0103023  R.M.S.=  0.0065479

          HESSIAN UPDATED USING THE BFGS FORMULA
             ACTUAL ENERGY CHANGE WAS   0.0000228272
          PREDICTED ENERGY CHANGE WAS  -0.0009116777 RATIO= -0.025
          MIN SEARCH, CORRECT HESSIAN, TRYING PURE NR STEP
               NR STEP HAS LENGTH         =   0.047811
          RADIUS OF STEP TAKEN=   0.04781  CURRENT TRUST RADIUS=   0.07500

 BEGINNING GEOMETRY SEARCH POINT NSERCH=   5 ...

 COORDINATES OF ALL ATOMS ARE (ANGS)
   ATOM   CHARGE       X              Y              Z
 ------------------------------------------------------------
 O           8.0  -0.5469158516   0.4533743874   0.1849912081
 O           8.0   0.5365729076  -0.4246845801   0.2657430092
 H           1.0  -1.1965054767  -0.0862676718  -0.2483637214
 H           1.0   1.2068484207   0.0575778644  -0.2023704957

          INTERNUCLEAR DISTANCES (ANGS.)
          ------------------------------

                1 O          2 O          3 H          4 H     

   1 O       0.0000000    1.3969453 *  0.9491979 *  1.8391284 *
   2 O       1.3969453 *  0.0000000    1.8391282 *  0.9491979 *
   3 H       0.9491979 *  1.8391282 *  0.0000000    2.4080940 *
   4 H       1.8391284 *  0.9491979 *  2.4080940 *  0.0000000  

  * ... LESS THAN  3.000

 ...... END OF ONE-ELECTRON INTEGRALS ......
 STEP CPU TIME =     0.00 TOTAL CPU TIME =          0.5 (      0.0 MIN)
 TOTAL WALL CLOCK TIME=          0.5 SECONDS, CPU UTILIZATION IS    98.03%
 TOTAL NUMBER OF NONZERO TWO-ELECTRON INTEGRALS =              164571
         11 INTEGRAL RECORDS WERE STORED ON DISK FILE  8.
  ...... END OF TWO-ELECTRON INTEGRALS .....
 STEP CPU TIME =     0.02 TOTAL CPU TIME =          0.5 (      0.0 MIN)
 TOTAL WALL CLOCK TIME=          0.5 SECONDS, CPU UTILIZATION IS    98.09%

          --------------------------
                 RHF SCF CALCULATION
          --------------------------
     DENSITY MATRIX CONV=  5.00E-05

 ITER EX DEM     TOTAL ENERGY        E CHANGE  DENSITY CHANGE     ORB. GRAD
          ---------------START SECOND ORDER SCF---------------
   1  0  0     -150.7644749551  -150.7644749551   0.004251194   0.003856535
   2  1  0     -150.7647078743    -0.0002329191   0.001575009   0.001021963
   3  2  0     -150.7647305617    -0.0000226875   0.000512417   0.000367745
   4  3  0     -150.7647324893    -0.0000019275   0.000349922   0.000182547
   5  4  0     -150.7647330048    -0.0000005155   0.000121169   0.000087549
   6  5  0     -150.7647330827    -0.0000000780   0.000046282   0.000026775
   7  6  0     -150.7647330911    -0.0000000084   0.000016781   0.000007657
   8  7  0     -150.7647330923    -0.0000000012   0.000003679   0.000001598

          -----------------
          DENSITY CONVERGED
          -----------------
     TIME TO FORM FOCK OPERATORS=       0.0 SECONDS (       0.0 SEC/ITER)
     TIME TO SOLVE SCF EQUATIONS=       0.0 SECONDS (       0.0 SEC/ITER)

 FINAL RHF ENERGY IS     -150.7647330923 AFTER   8 ITERATIONS
 ...... END OF RHF CALCULATION ......
 STEP CPU TIME =     0.02 TOTAL CPU TIME =          0.5 (      0.0 MIN)
 TOTAL WALL CLOCK TIME=          0.5 SECONDS, CPU UTILIZATION IS    98.16%
 ..... END OF 1-ELECTRON GRADIENT ......
 STEP CPU TIME =     0.00 TOTAL CPU TIME =          0.5 (      0.0 MIN)
 TOTAL WALL CLOCK TIME=          0.6 SECONDS, CPU UTILIZATION IS    98.17%
 ...... END OF 2-ELECTRON GRADIENT ......
 STEP CPU TIME =     0.05 TOTAL CPU TIME =          0.6 (      0.0 MIN)
 TOTAL WALL CLOCK TIME=          0.6 SECONDS, CPU UTILIZATION IS    98.31%

          NSERCH=  5     ENERGY=    -150.7647331

                                 -----------------------
                                 GRADIENT (HARTREE/BOHR)
                                 -----------------------
        ATOM     ZNUC       DE/DX         DE/DY         DE/DZ
 --------------------------------------------------------------
    1  O            8.0     0.0015454     0.0010130    -0.0001983
    2  O            8.0    -0.0015376    -0.0010344    -0.0001388
    3  H            1.0     0.0004157    -0.0009884     0.0002417
    4  H            1.0    -0.0004234     0.0010097     0.0000953

          MAXIMUM GRADIENT = 0.0015454    RMS GRADIENT = 0.0008814

 NSERCH:   5  E=     -150.7647330923  GRAD. MAX=  0.0015454  R.M.S.=  0.0008814

          HESSIAN UPDATED USING THE BFGS FORMULA
             ACTUAL ENERGY CHANGE WAS  -0.0004511763
          PREDICTED ENERGY CHANGE WAS  -0.0004179850 RATIO=  1.079
          MIN SEARCH, CORRECT HESSIAN, TRYING PURE NR STEP
               NR STEP HAS LENGTH         =   0.018003
          RADIUS OF STEP TAKEN=   0.01800  CURRENT TRUST RADIUS=   0.09562

 BEGINNING GEOMETRY SEARCH POINT NSERCH=   6 ...

 COORDINATES OF ALL ATOMS ARE (ANGS)
   ATOM   CHARGE       X              Y              Z
 ------------------------------------------------------------
 O           8.0  -0.5492685194   0.4509438286   0.1888777279
 O           8.0   0.5387528239  -0.4217745642   0.2693939124
 H           1.0  -1.1971957032  -0.0845220701  -0.2522765914
 H           1.0   1.2077113987   0.0553528058  -0.2059950488

          INTERNUCLEAR DISTANCES (ANGS.)
          ------------------------------

                1 O          2 O          3 H          4 H     

   1 O       0.0000000    1.3971080 *  0.9492895 *  1.8437449 *
   2 O       1.3971080 *  0.0000000    1.8437453 *  0.9492896 *
   3 H       0.9492895 *  1.8437453 *  0.0000000    2.4094159 *
   4 H       1.8437449 *  0.9492896 *  2.4094159 *  0.0000000  

  * ... LESS THAN  3.000

 ...... END OF ONE-ELECTRON INTEGRALS ......
 STEP CPU TIME =     0.00 TOTAL CPU TIME =          0.6 (      0.0 MIN)
 TOTAL WALL CLOCK TIME=          0.6 SECONDS, CPU UTILIZATION IS    98.31%
 TOTAL NUMBER OF NONZERO TWO-ELECTRON INTEGRALS =              164571
         11 INTEGRAL RECORDS WERE STORED ON DISK FILE  8.
  ...... END OF TWO-ELECTRON INTEGRALS .....
 STEP CPU TIME =     0.02 TOTAL CPU TIME =          0.6 (      0.0 MIN)
 TOTAL WALL CLOCK TIME=          0.6 SECONDS, CPU UTILIZATION IS    98.35%

          --------------------------
                 RHF SCF CALCULATION
          --------------------------
     DENSITY MATRIX CONV=  1.00E-05

 ITER EX DEM     TOTAL ENERGY        E CHANGE  DENSITY CHANGE     ORB. GRAD
          ---------------START SECOND ORDER SCF---------------
   1  0  0     -150.7647261507  -150.7647261507   0.002321088   0.001607339
   2  1  0     -150.7647542411    -0.0000280904   0.001002997   0.000554162
   3  2  0     -150.7647584412    -0.0000042001   0.000324361   0.000158469
   4  3  0     -150.7647587133    -0.0000002721   0.000176548   0.000055385
   5  4  0     -150.7647587730    -0.0000000597   0.000021594   0.000023018
   6  5  0     -150.7647587783    -0.0000000053   0.000018555   0.000012892
   7  6  0     -150.7647587798    -0.0000000015   0.000006935   0.000003517
   8  7  0     -150.7647587800    -0.0000000002   0.000001199   0.000000742

          -----------------
          DENSITY CONVERGED
          -----------------
     TIME TO FORM FOCK OPERATORS=       0.0 SECONDS (       0.0 SEC/ITER)
     TIME TO SOLVE SCF EQUATIONS=       0.0 SECONDS (       0.0 SEC/ITER)

 FINAL RHF ENERGY IS     -150.7647587800 AFTER   8 ITERATIONS
 ...... END OF RHF CALCULATION ......
 STEP CPU TIME =     0.02 TOTAL CPU TIME =          0.6 (      0.0 MIN)
 TOTAL WALL CLOCK TIME=          0.6 SECONDS, CPU UTILIZATION IS    98.40%
 ..... END OF 1-ELECTRON GRADIENT ......
 STEP CPU TIME =     0.00 TOTAL CPU TIME =          0.6 (      0.0 MIN)
 TOTAL WALL CLOCK TIME=          0.6 SECONDS, CPU UTILIZATION IS    98.41%
 ...... END OF 2-ELECTRON GRADIENT ......
 STEP CPU TIME =     0.04 TOTAL CPU TIME =          0.7 (      0.0 MIN)
 TOTAL WALL CLOCK TIME=          0.7 SECONDS, CPU UTILIZATION IS    98.51%

          NSERCH=  6     ENERGY=    -150.7647588

                                 -----------------------
                                 GRADIENT (HARTREE/BOHR)
                                 -----------------------
        ATOM     ZNUC       DE/DX         DE/DY         DE/DZ
 --------------------------------------------------------------
    1  O            8.0     0.0005388     0.0002120    -0.0002075
    2  O            8.0    -0.0005295    -0.0002383    -0.0002032
    3  H            1.0    -0.0002488    -0.0002970     0.0002196
    4  H            1.0     0.0002394     0.0003233     0.0001912

          MAXIMUM GRADIENT = 0.0005388    RMS GRADIENT = 0.0003100

 NSERCH:   6  E=     -150.7647587800  GRAD. MAX=  0.0005388  R.M.S.=  0.0003100

          HESSIAN UPDATED USING THE BFGS FORMULA
             ACTUAL ENERGY CHANGE WAS  -0.0000256876
          PREDICTED ENERGY CHANGE WAS  -0.0000185693 RATIO=  1.383
          MIN SEARCH, CORRECT HESSIAN, TRYING PURE NR STEP
               NR STEP HAS LENGTH         =   0.044807
          RADIUS OF STEP TAKEN=   0.04481  CURRENT TRUST RADIUS=   0.05000

 BEGINNING GEOMETRY SEARCH POINT NSERCH=   7 ...

 COORDINATES OF ALL ATOMS ARE (ANGS)
   ATOM   CHARGE       X              Y              Z
 ------------------------------------------------------------
 O           8.0  -0.5523114903   0.4476017387   0.1994672895
 O           8.0   0.5413180658  -0.4171079985   0.2796016756
 H           1.0  -1.1914792276  -0.0820365038  -0.2627499905
 H           1.0   1.2024726521   0.0515427637  -0.2163189745

          INTERNUCLEAR DISTANCES (ANGS.)
          ------------------------------

                1 O          2 O          3 H          4 H     

   1 O       0.0000000    1.3964849 *  0.9501036 *  1.8463500 *
   2 O       1.3964849 *  0.0000000    1.8463490 *  0.9501033 *
   3 H       0.9501036 *  1.8463490 *  0.0000000    2.3981253 *
   4 H       1.8463500 *  0.9501033 *  2.3981253 *  0.0000000  

  * ... LESS THAN  3.000

 ...... END OF ONE-ELECTRON INTEGRALS ......
 STEP CPU TIME =     0.00 TOTAL CPU TIME =          0.7 (      0.0 MIN)
 TOTAL WALL CLOCK TIME=          0.7 SECONDS, CPU UTILIZATION IS    98.51%
 TOTAL NUMBER OF NONZERO TWO-ELECTRON INTEGRALS =              164569
         11 INTEGRAL RECORDS WERE STORED ON DISK FILE  8.
  ...... END OF TWO-ELECTRON INTEGRALS .....
 STEP CPU TIME =     0.02 TOTAL CPU TIME =          0.7 (      0.0 MIN)
 TOTAL WALL CLOCK TIME=          0.7 SECONDS, CPU UTILIZATION IS    98.54%

          --------------------------
                 RHF SCF CALCULATION
          --------------------------
     DENSITY MATRIX CONV=  1.00E-05

 ITER EX DEM     TOTAL ENERGY        E CHANGE  DENSITY CHANGE     ORB. GRAD
          ---------------START SECOND ORDER SCF---------------
   1  0  0     -150.7646036473  -150.7646036473   0.006014694   0.003937443
   2  1  0     -150.7647572766    -0.0001536293   0.002562552   0.001326054
   3  2  0     -150.7647790068    -0.0000217302   0.000801690   0.000309729
   4  3  0     -150.7647801655    -0.0000011587   0.000422228   0.000103130
   5  4  0     -150.7647803601    -0.0000001945   0.000036214   0.000030885
   6  5  0     -150.7647803694    -0.0000000093   0.000010816   0.000012556
   7  6  0     -150.7647803707    -0.0000000013   0.000010499   0.000006485
   8  7  0     -150.7647803711    -0.0000000004   0.000002355   0.000001305
   9  8  0     -150.7647803711    -0.0000000000   0.000000835   0.000000659

          -----------------
          DENSITY CONVERGED
          -----------------
     TIME TO FORM FOCK OPERATORS=       0.0 SECONDS (       0.0 SEC/ITER)
     TIME TO SOLVE SCF EQUATIONS=       0.0 SECONDS (       0.0 SEC/ITER)

 FINAL RHF ENERGY IS     -150.7647803711 AFTER   9 ITERATIONS
 ...... END OF RHF CALCULATION ......
 STEP CPU TIME =     0.03 TOTAL CPU TIME =          0.7 (      0.0 MIN)
 TOTAL WALL CLOCK TIME=          0.7 SECONDS, CPU UTILIZATION IS    98.59%
 ..... END OF 1-ELECTRON GRADIENT ......
 STEP CPU TIME =     0.00 TOTAL CPU TIME =          0.7 (      0.0 MIN)
 TOTAL WALL CLOCK TIME=          0.7 SECONDS, CPU UTILIZATION IS    98.59%
 ...... END OF 2-ELECTRON GRADIENT ......
 STEP CPU TIME =     0.04 TOTAL CPU TIME =          0.8 (      0.0 MIN)
 TOTAL WALL CLOCK TIME=          0.8 SECONDS, CPU UTILIZATION IS    98.67%

          NSERCH=  7     ENERGY=    -150.7647804

                                 -----------------------
                                 GRADIENT (HARTREE/BOHR)
                                 -----------------------
        ATOM     ZNUC       DE/DX         DE/DY         DE/DZ
 --------------------------------------------------------------
    1  O            8.0     0.0008037     0.0002777     0.0003733
    2  O            8.0    -0.0008206    -0.0002301     0.0003679
    3  H            1.0    -0.0009235    -0.0004854    -0.0003627
    4  H            1.0     0.0009404     0.0004378    -0.0003785

          MAXIMUM GRADIENT = 0.0009404    RMS GRADIENT = 0.0005890

 NSERCH:   7  E=     -150.7647803711  GRAD. MAX=  0.0009404  R.M.S.=  0.0005890

          HESSIAN UPDATED USING THE BFGS FORMULA
             ACTUAL ENERGY CHANGE WAS  -0.0000215911
          PREDICTED ENERGY CHANGE WAS  -0.0000170171 RATIO=  1.269
          MIN SEARCH, CORRECT HESSIAN, TRYING PURE NR STEP
               NR STEP HAS LENGTH         =   0.022825
          RADIUS OF STEP TAKEN=   0.02283  CURRENT TRUST RADIUS=   0.06337

 BEGINNING GEOMETRY SEARCH POINT NSERCH=   8 ...

 COORDINATES OF ALL ATOMS ARE (ANGS)
   ATOM   CHARGE       X              Y              Z
 ------------------------------------------------------------
 O           8.0  -0.5538352935   0.4462181965   0.2044382895
 O           8.0   0.5426182759  -0.4151026995   0.2844234709
 H           1.0  -1.1871717430  -0.0808291879  -0.2676465834
 H           1.0   1.1983887606   0.0497136909  -0.2212151769

          INTERNUCLEAR DISTANCES (ANGS.)
          ------------------------------

                1 O          2 O          3 H          4 H     

   1 O       0.0000000    1.3965965 *  0.9496095 *  1.8462627 *
   2 O       1.3965965 *  0.0000000    1.8462648 *  0.9496103 *
   3 H       0.9496095 *  1.8462648 *  0.0000000    2.3895808 *
   4 H       1.8462627 *  0.9496103 *  2.3895808 *  0.0000000  

  * ... LESS THAN  3.000

 ...... END OF ONE-ELECTRON INTEGRALS ......
 STEP CPU TIME =     0.00 TOTAL CPU TIME =          0.8 (      0.0 MIN)
 TOTAL WALL CLOCK TIME=          0.8 SECONDS, CPU UTILIZATION IS    98.67%
 TOTAL NUMBER OF NONZERO TWO-ELECTRON INTEGRALS =              164571
         11 INTEGRAL RECORDS WERE STORED ON DISK FILE  8.
  ...... END OF TWO-ELECTRON INTEGRALS .....
 STEP CPU TIME =     0.02 TOTAL CPU TIME =          0.8 (      0.0 MIN)
 TOTAL WALL CLOCK TIME=          0.8 SECONDS, CPU UTILIZATION IS    98.69%

          --------------------------
                 RHF SCF CALCULATION
          --------------------------
     DENSITY MATRIX CONV=  1.00E-05

 ITER EX DEM     TOTAL ENERGY        E CHANGE  DENSITY CHANGE     ORB. GRAD
          ---------------START SECOND ORDER SCF---------------
   1  0  0     -150.7647438529  -150.7647438529   0.003039574   0.001824474
   2  1  0     -150.7647808063    -0.0000369534   0.001257674   0.000632608
   3  2  0     -150.7647858990    -0.0000050927   0.000367010   0.000132705
   4  3  0     -150.7647861611    -0.0000002621   0.000203523   0.000049544
   5  4  0     -150.7647862037    -0.0000000427   0.000011175   0.000009409
   6  5  0     -150.7647862047    -0.0000000010   0.000003748   0.000003083
   7  6  0     -150.7647862049    -0.0000000002   0.000001791   0.000001497

          -----------------
          DENSITY CONVERGED
          -----------------
     TIME TO FORM FOCK OPERATORS=       0.0 SECONDS (       0.0 SEC/ITER)
     TIME TO SOLVE SCF EQUATIONS=       0.0 SECONDS (       0.0 SEC/ITER)

 FINAL RHF ENERGY IS     -150.7647862049 AFTER   7 ITERATIONS
 ...... END OF RHF CALCULATION ......
 STEP CPU TIME =     0.02 TOTAL CPU TIME =          0.8 (      0.0 MIN)
 TOTAL WALL CLOCK TIME=          0.8 SECONDS, CPU UTILIZATION IS    98.73%
 ..... END OF 1-ELECTRON GRADIENT ......
 STEP CPU TIME =     0.00 TOTAL CPU TIME =          0.8 (      0.0 MIN)
 TOTAL WALL CLOCK TIME=          0.8 SECONDS, CPU UTILIZATION IS    98.73%
 ...... END OF 2-ELECTRON GRADIENT ......
 STEP CPU TIME =     0.05 TOTAL CPU TIME =          0.8 (      0.0 MIN)
 TOTAL WALL CLOCK TIME=          0.9 SECONDS, CPU UTILIZATION IS    98.79%

          NSERCH=  8     ENERGY=    -150.7647862

                                 -----------------------
                                 GRADIENT (HARTREE/BOHR)
                                 -----------------------
[...]

 FINAL RHF ENERGY IS     -150.7647868582 AFTER   6 ITERATIONS
 ...... END OF RHF CALCULATION ......
 STEP CPU TIME =     0.02 TOTAL CPU TIME =          0.9 (      0.0 MIN)
 TOTAL WALL CLOCK TIME=          0.9 SECONDS, CPU UTILIZATION IS    98.84%
 ..... END OF 1-ELECTRON GRADIENT ......
 STEP CPU TIME =     0.00 TOTAL CPU TIME =          0.9 (      0.0 MIN)
 TOTAL WALL CLOCK TIME=          0.9 SECONDS, CPU UTILIZATION IS    98.84%
 ...... END OF 2-ELECTRON GRADIENT ......
 STEP CPU TIME =     0.05 TOTAL CPU TIME =          0.9 (      0.0 MIN)
 TOTAL WALL CLOCK TIME=          1.0 SECONDS, CPU UTILIZATION IS    98.90%

          NSERCH=  9     ENERGY=    -150.7647869

                                 -----------------------
                                 GRADIENT (HARTREE/BOHR)
                                 -----------------------
        ATOM     ZNUC       DE/DX         DE/DY         DE/DZ
 --------------------------------------------------------------
    1  O            8.0    -0.0000374    -0.0000182    -0.0000152
    2  O            8.0     0.0000388     0.0000182    -0.0000180
    3  H            1.0    -0.0000019     0.0000224     0.0000145
    4  H            1.0     0.0000005    -0.0000223     0.0000187

          MAXIMUM GRADIENT = 0.0000388    RMS GRADIENT = 0.0000218

 NSERCH:   9  E=     -150.7647868582  GRAD. MAX=  0.0000388  R.M.S.=  0.0000218


      ***** EQUILIBRIUM GEOMETRY LOCATED *****
 COORDINATES OF ALL ATOMS ARE (ANGS)
   ATOM   CHARGE       X              Y              Z
 ------------------------------------------------------------
 O           8.0  -0.5539691487   0.4460323640   0.2051888580
 O           8.0   0.5427157867  -0.4148195633   0.2851455617
 H           1.0  -1.1858682420  -0.0806579453  -0.2683677958
 H           1.0   1.1971216041   0.0494451447  -0.2219666238

          INTERNUCLEAR DISTANCES (ANGS.)
          ------------------------------

                1 O          2 O          3 H          4 H     

   1 O       0.0000000    1.3964874 *  0.9491865 *  1.8455520 *
   2 O       1.3964874 *  0.0000000    1.8455470 *  0.9491846 *
   3 H       0.9491865 *  1.8455470 *  0.0000000    2.3869898 *
   4 H       1.8455520 *  0.9491846 *  2.3869898 *  0.0000000  

  * ... LESS THAN  3.000


          NUCLEAR ENERGY    =       37.9813113467
          ELECTRONIC ENERGY =     -188.7460982049
          TOTAL ENERGY      =     -150.7647868582

          ------------------
          MOLECULAR ORBITALS
          ------------------

                      1          2          3          4          5
                  -20.6284   -20.6280    -1.4982    -1.2057    -0.7253
                     A          A          A          A          A   
    1  O  1  S    0.704238   0.702519   0.148895   0.149515   0.011210
    2  O  1  S    0.015028   0.014778  -0.341757  -0.350293  -0.026027
    3  O  1  X    0.000358  -0.000016  -0.044741   0.116704  -0.273997
    4  O  1  Y   -0.001119  -0.000807   0.080324   0.012326   0.003100
    5  O  1  Z   -0.000364  -0.000410   0.021842   0.044397  -0.294174
    6  O  1  S    0.002622   0.002265  -0.268013  -0.355515  -0.035671
    7  O  1  X   -0.000091  -0.000243  -0.013986   0.055358  -0.156356
    8  O  1  Y    0.000420   0.000523   0.033740   0.009715  -0.001004
    9  O  1  Z    0.000084   0.000226   0.013912   0.026306  -0.175399
   10  O  1 XX   -0.002884  -0.002915  -0.020892  -0.004638  -0.002318
   11  O  1 YY   -0.002793  -0.002786  -0.015375  -0.005649  -0.007293
   12  O  1 ZZ   -0.002659  -0.002614  -0.001555  -0.009825   0.014218
   13  O  1 XY    0.000131   0.000149   0.009381  -0.020156   0.030842
   14  O  1 XZ   -0.000070  -0.000083  -0.004789  -0.009932   0.007667
   15  O  1 YZ   -0.000031  -0.000056  -0.005514  -0.008115   0.020829
   16  O  2  S    0.702461  -0.704295   0.148895  -0.149515   0.011212
   17  O  2  S    0.014990  -0.014816  -0.341757   0.350293  -0.026032
   18  O  2  X   -0.000338  -0.000036   0.043462   0.118647   0.287145
   19  O  2  Y    0.001061  -0.000751  -0.076778   0.006939  -0.039546
   20  O  2  Z   -0.000518   0.000509   0.033866  -0.040223  -0.278586
   21  O  2  S    0.002616  -0.002272  -0.268013   0.355515  -0.035680
   22  O  2  X    0.000086  -0.000231   0.013237   0.056530   0.164211
   23  O  2  Y   -0.000404   0.000490  -0.031664   0.006464  -0.020771
   24  O  2  Z    0.000140  -0.000302   0.018700  -0.024768  -0.166786
   25  O  2 XX   -0.002881   0.002927  -0.021185   0.005538  -0.001517
   26  O  2 YY   -0.002777   0.002777  -0.013903   0.004044  -0.011333
   27  O  2 ZZ   -0.002658   0.002631  -0.002735   0.010532   0.017458
   28  O  2 XY    0.000136  -0.000155   0.009543   0.019050   0.030401
   29  O  2 XZ    0.000041  -0.000048   0.002579  -0.012701  -0.012517
   30  O  2 YZ    0.000055  -0.000087   0.007797  -0.006421  -0.015699
   31  H  3  S    0.000199   0.000307  -0.082037  -0.130018   0.175667
   32  H  3  S   -0.000187  -0.000067   0.008829  -0.000143   0.076772
   33  H  4  S    0.000199  -0.000308  -0.082037   0.130019   0.175671
   34  H  4  S   -0.000187   0.000068   0.008829   0.000143   0.076773

                      6          7          8          9         10
                   -0.7148    -0.6185    -0.5083    -0.4686     0.2235
                     A          A          A          A          A   
    1  O  1  S    0.053518  -0.030562  -0.035256  -0.019728   0.059062
    2  O  1  S   -0.124811   0.074888   0.074395   0.048217  -0.050096
    3  O  1  X   -0.197998  -0.302182   0.103317  -0.095764   0.135408
    4  O  1  Y   -0.329887   0.157556   0.421829  -0.050398   0.077763
    5  O  1  Z   -0.042066   0.279436  -0.152226   0.471240   0.092168
    6  O  1  S   -0.201656   0.134029   0.184836   0.086420  -0.806664
    7  O  1  X   -0.113734  -0.201154   0.083246  -0.084691   0.303216
    8  O  1  Y   -0.206199   0.100417   0.307366  -0.043629   0.227455
    9  O  1  Z   -0.017460   0.195933  -0.118255   0.363203   0.213494
   10  O  1 XX   -0.008032   0.000193  -0.015610  -0.000872   0.026362
   11  O  1 YY    0.026255  -0.011051  -0.019204   0.010466   0.028647
   12  O  1 ZZ   -0.002846   0.000485   0.009797  -0.015613   0.033033
   13  O  1 XY    0.009242   0.027770  -0.006268   0.000588  -0.003712
   14  O  1 XZ    0.010397   0.011234  -0.008035  -0.013842  -0.007114
   15  O  1 YZ    0.011284  -0.015547  -0.003366  -0.011006  -0.009863
   16  O  2  S   -0.053518  -0.030562  -0.035256   0.019728   0.059061
   17  O  2  S    0.124809   0.074888   0.074396  -0.048217  -0.050095
   18  O  2  X   -0.200665   0.288639  -0.097483  -0.074284  -0.139701
   19  O  2  Y   -0.322470  -0.120001  -0.438017  -0.109984  -0.065846
   20  O  2  Z    0.074429   0.310659  -0.102105  -0.464934   0.094994
   21  O  2  S    0.201654   0.134029   0.184837  -0.086421  -0.806652
   22  O  2  X   -0.115009   0.191699  -0.078651  -0.068138  -0.313310
   23  O  2  Y   -0.202653  -0.074197  -0.320115  -0.089547  -0.199441
   24  O  2  Z    0.038228   0.216061  -0.082032  -0.358234   0.226515
   25  O  2 XX    0.007150   0.001218  -0.016224   0.001997   0.025792
   26  O  2 YY   -0.023371  -0.007349  -0.018032  -0.012455   0.030851
   27  O  2 ZZ    0.000844  -0.004241   0.009239   0.016478   0.031399
   28  O  2 XY   -0.008429   0.025358  -0.005528  -0.001975  -0.003259
   29  O  2 XZ    0.011822  -0.014483   0.007432  -0.014459   0.007233
   30  O  2 YZ    0.014809   0.017856   0.007248  -0.007005   0.010066
   31  H  3  S    0.142360   0.019935  -0.112490  -0.079398   0.049562
   32  H  3  S    0.066043   0.019634  -0.050936  -0.052561   1.135741
   33  H  4  S   -0.142354   0.019934  -0.112489   0.079397   0.049560
   34  H  4  S   -0.066041   0.019633  -0.050936   0.052560   1.135722

                     11         12         13         14         15
                    0.2310     0.3474     1.0575     1.0649     1.0702
                     A          A          A          A          A   
    1  O  1  S    0.074086   0.041022   0.016392  -0.006503  -0.002361
    2  O  1  S   -0.088593  -0.139551  -0.088320   0.446543   0.252117
    3  O  1  X   -0.057464  -0.401779  -0.232028  -0.070609  -0.057052
    4  O  1  Y    0.219235   0.178728   0.417505   0.412352  -0.334057
    5  O  1  Z    0.072565  -0.082118   0.164076  -0.176333   0.151148
    6  O  1  S   -0.927345  -0.213819   0.475455  -0.573346  -0.341261
    7  O  1  X   -0.013537  -0.785116   0.797699   0.157308  -0.252827
    8  O  1  Y    0.438651   0.343409  -0.562876  -0.588988   0.144265
    9  O  1  Z    0.179117  -0.176292   0.048073   0.073372  -0.262464
   10  O  1 XX    0.038977  -0.006361   0.149530   0.166264   0.115720
   11  O  1 YY    0.014084  -0.024893   0.017435   0.181746   0.050745
   12  O  1 ZZ    0.024837  -0.020359  -0.045580   0.145161   0.073616
   13  O  1 XY   -0.011005  -0.002958  -0.051499  -0.096758  -0.124100
   14  O  1 XZ   -0.000015   0.010271   0.070501  -0.035979  -0.060807
   15  O  1 YZ   -0.009793  -0.007671   0.066893  -0.053917  -0.043789
   16  O  2  S   -0.074088  -0.041022  -0.016392   0.006504  -0.002363
   17  O  2  S    0.088594   0.139551   0.088307  -0.446490   0.252176
   18  O  2  X   -0.053448  -0.404590  -0.223072  -0.077390   0.051052
   19  O  2  Y    0.208106   0.186525   0.392648   0.431203   0.350649
   20  O  2  Z   -0.102311   0.040367  -0.226084   0.119265   0.110013
   21  O  2  S    0.927361   0.213812  -0.475436   0.573261  -0.341362
   22  O  2  X   -0.004056  -0.791350   0.797400   0.158816   0.264175
   23  O  2  Y    0.412379   0.360696  -0.562097  -0.593093  -0.175590
   24  O  2  Z   -0.233691   0.095304   0.060140   0.009089  -0.230234
   25  O  2 XX   -0.038889   0.005595  -0.154457  -0.162854   0.110199
   26  O  2 YY   -0.016334   0.023172  -0.001561  -0.192421   0.060090
   27  O  2 ZZ   -0.022676   0.022847   0.034621  -0.137842   0.069844
   28  O  2 XY    0.011331   0.004543   0.056083   0.093543  -0.117193
   29  O  2 XZ   -0.002241   0.008965   0.053446  -0.049329   0.078372
   30  O  2 YZ   -0.010537  -0.007855   0.076713  -0.042780   0.040621
   31  H  3  S    0.060794  -0.049869   0.584051  -0.468743  -0.697600
   32  H  3  S    1.064387  -0.646687  -0.267112   0.401132   0.486086
   33  H  4  S   -0.060795   0.049868  -0.584005   0.468659  -0.697693
   34  H  4  S   -1.064408   0.646698   0.267076  -0.401062   0.486143

                     16         17         18         19
                    1.0907     1.1677     1.2218     1.2708
                     A          A          A          A   
    1  O  1  S   -0.026478  -0.020944   0.004018  -0.005921
    2  O  1  S   -0.618867  -0.384337  -0.207056   0.365207
    3  O  1  X   -0.041455  -0.424293   0.272596  -0.469454
    4  O  1  Y   -0.294048  -0.173466   0.139746   0.223936
    5  O  1  Z   -0.440042   0.378767  -0.527095  -0.288746
    6  O  1  S    1.202380   0.697289   0.312876  -0.867925
    7  O  1  X   -0.064870   0.570230  -0.305359   0.472735
    8  O  1  Y    0.250868   0.308085  -0.032626  -0.345012
    9  O  1  Z    0.322156  -0.372707   0.845100   0.291811
   10  O  1 XX   -0.240432  -0.216200  -0.032843   0.019585
   11  O  1 YY   -0.226351  -0.127020  -0.080865   0.069592
   12  O  1 ZZ   -0.203861  -0.083663  -0.081775   0.169886
   13  O  1 XY   -0.001985   0.083200   0.049516   0.078863
   14  O  1 XZ   -0.048256   0.000383   0.002595  -0.093310
   15  O  1 YZ    0.003695   0.008971   0.052760  -0.008217
   16  O  2  S   -0.026478  -0.020944  -0.004018  -0.005922
   17  O  2  S   -0.618876  -0.384347   0.207061   0.365202
   18  O  2  X    0.062366   0.407051   0.248630   0.481496
   19  O  2  Y    0.236048   0.221299   0.206207  -0.257361
   20  O  2  Z   -0.471399   0.372728   0.517034  -0.236281
   21  O  2  S    1.202389   0.697315  -0.312882  -0.867909
   22  O  2  X    0.049369  -0.553514  -0.266517  -0.484558
   23  O  2  Y   -0.207853  -0.354484  -0.140342   0.377840
   24  O  2  Z    0.353974  -0.356333  -0.847212   0.223819
   25  O  2 XX   -0.244184  -0.215473   0.032482   0.012915
   26  O  2 YY   -0.226777  -0.127866   0.092122   0.073444
   27  O  2 ZZ   -0.199694  -0.083552   0.070884   0.172698
   28  O  2 XY    0.004107   0.082210  -0.051279   0.088737
   29  O  2 XZ    0.045966  -0.017944   0.006705   0.074389
   30  O  2 YZ    0.000014   0.001334   0.048932   0.026832
   31  H  3  S   -0.155381   0.131067   0.279662  -0.358943
   32  H  3  S   -0.148501  -0.276826  -0.310235   0.581492
   33  H  4  S   -0.155377   0.131076  -0.279665  -0.358944
   34  H  4  S   -0.148509  -0.276831   0.310237   0.581481

     ----------------------------------------------------------------
     PROPERTY VALUES FOR THE RHF   SELF-CONSISTENT FIELD WAVEFUNCTION
     ----------------------------------------------------------------

          -----------------
          ENERGY COMPONENTS
          -----------------

         WAVEFUNCTION NORMALIZATION =       1.0000000000

                ONE ELECTRON ENERGY =    -283.5004786736
                TWO ELECTRON ENERGY =      94.7543804687
           NUCLEAR REPULSION ENERGY =      37.9813113467
                                      ------------------
                       TOTAL ENERGY =    -150.7647868582

 ELECTRON-ELECTRON POTENTIAL ENERGY =      94.7543804687
  NUCLEUS-ELECTRON POTENTIAL ENERGY =    -433.8879766484
   NUCLEUS-NUCLEUS POTENTIAL ENERGY =      37.9813113467
                                      ------------------
             TOTAL POTENTIAL ENERGY =    -301.1522848330
               TOTAL KINETIC ENERGY =     150.3874979748
                 VIRIAL RATIO (V/T) =       2.0025087782

          ---------------------------------------
          MULLIKEN AND LOWDIN POPULATION ANALYSES
          ---------------------------------------

     ATOMIC MULLIKEN POPULATION IN EACH MOLECULAR ORBITAL

                      1          2          3          4          5

                  2.000000   2.000000   2.000000   2.000000   2.000000

    1             1.002538   0.997463   0.954539   0.888961   0.818778
    2             0.997488   1.002513   0.954539   0.888961   0.818798
    3            -0.000013   0.000012   0.045461   0.111038   0.181208
    4            -0.000013   0.000012   0.045461   0.111040   0.181216

                      6          7          8          9

                  2.000000   2.000000   2.000000   2.000000

    1             0.880887   0.995971   0.950039   0.972754
    2             0.880863   0.995968   0.950043   0.972758
    3             0.119129   0.004030   0.049959   0.027244
    4             0.119120   0.004030   0.049959   0.027244

               ----- POPULATIONS IN EACH AO -----
                             MULLIKEN      LOWDIN
              1  O  1  S      1.99550     1.97765
              2  O  1  S      0.93171     0.73226
              3  O  1  X      0.73925     0.69063
              4  O  1  Y      0.93125     0.89020
              5  O  1  Z      1.14464     1.11184
              6  O  1  S      0.88461     0.47151
              7  O  1  X      0.43958     0.50495
              8  O  1  Y      0.58237     0.64816
              9  O  1  Z      0.71909     0.73969
             10  O  1 XX      0.03041     0.18925
             11  O  1 YY      0.01550     0.18036
             12  O  1 ZZ      0.01120     0.17750
             13  O  1 XY      0.02227     0.03154
             14  O  1 XZ      0.00827     0.01754
             15  O  1 YZ      0.00629     0.00953
             16  O  2  S      1.99550     1.97765
             17  O  2  S      0.93171     0.73225
             18  O  2  X      0.73027     0.68066
             19  O  2  Y      0.95023     0.91137
             20  O  2  Z      1.13464     1.10069
             21  O  2  S      0.88461     0.47150
             22  O  2  X      0.43209     0.49854
             23  O  2  Y      0.59503     0.65720
             24  O  2  Z      0.71391     0.73712
             25  O  2 XX      0.03136     0.19028
             26  O  2 YY      0.01374     0.17863
             27  O  2 ZZ      0.01163     0.17800
             28  O  2 XY      0.02061     0.02939
             29  O  2 XZ      0.01035     0.01988
             30  O  2 YZ      0.00626     0.00952
             31  H  3  S      0.46950     0.43676
             32  H  3  S      0.06857     0.19055
             33  H  4  S      0.46950     0.43686
             34  H  4  S      0.06857     0.19057

          ----- MULLIKEN ATOMIC OVERLAP POPULATIONS -----
          (OFF-DIAGONAL ELEMENTS NEED TO BE MULTIPLIED BY 2)

             1           2           3           4

    1    8.1552722
    2    0.0761825   8.1552740
    3    0.2583176  -0.0278410   0.3058992
    4   -0.0278406   0.2583176   0.0016918   0.3058989

          TOTAL MULLIKEN AND LOWDIN ATOMIC POPULATIONS
       ATOM         MULL.POP.    CHARGE          LOW.POP.     CHARGE
    1 O             8.461932   -0.461932         8.372595   -0.372595
    2 O             8.461933   -0.461933         8.372661   -0.372661
    3 H             0.538067    0.461933         0.627316    0.372684
    4 H             0.538068    0.461932         0.627428    0.372572

          -------------------------------
          BOND ORDER AND VALENCE ANALYSIS     BOND ORDER THRESHOLD=0.050
          -------------------------------

                   BOND                       BOND                       BOND
  ATOM PAIR DIST  ORDER      ATOM PAIR DIST  ORDER      ATOM PAIR DIST  ORDER
    1   2  1.396  0.941        1   3  0.949  0.753        2   4  0.949  0.753

                       TOTAL       BONDED        FREE
      ATOM            VALENCE     VALENCE     VALENCE
    1 O                 1.695       1.695      -0.000
    2 O                 1.695       1.695       0.000
    3 H                 0.755       0.755       0.000
    4 H                 0.755       0.755       0.000

          ---------------------
          ELECTROSTATIC MOMENTS
          ---------------------

 POINT   1           X           Y           Z (BOHR)    CHARGE
                -0.009372    0.025996    0.408375       -0.00 (A.U.)
         DX          DY          DZ         /D/  (DEBYE)
     0.044648   -0.123838   -1.945516    1.949964
 ...... END OF PROPERTY EVALUATION ......
 STEP CPU TIME =     0.01 TOTAL CPU TIME =          0.9 (      0.0 MIN)
 TOTAL WALL CLOCK TIME=          1.0 SECONDS, CPU UTILIZATION IS    98.90%
  $VIB   
          IVIB=   0 IATOM=   0 ICOORD=   0 E=     -150.7647868582
 -3.740320899E-05-1.823309309E-05-1.524921814E-05 3.881371128E-05 1.818618913E-05
 -1.798460957E-05-1.863022611E-06 2.238887385E-05 1.453473791E-05 4.525173565E-07
 -2.234196960E-05 1.869908898E-05
  4.464757838E-02-1.238378868E-01-1.945515553E+00
 ......END OF GEOMETRY SEARCH......
 STEP CPU TIME =     0.00 TOTAL CPU TIME =          0.9 (      0.0 MIN)
 TOTAL WALL CLOCK TIME=          1.0 SECONDS, CPU UTILIZATION IS    98.02%
              1051453  WORDS OF DYNAMIC MEMORY USED
 EXECUTION OF GAMESS TERMINATED NORMALLY 19:29:06 06-OCT-2022    
 DDI: 263640 bytes (0.3 MB / 0 MWords) used by master data server.

 ----------------------------------------
 CPU timing information for all processes
 ========================================
 0: 0.871 + 0.80 = 0.951
 ----------------------------------------
 ddikick.x: exited gracefully.
----- accounting info -----
Files used on the master node nayanika-HP-Pavilion-Gaming-Laptop-15-ec0xxx were:
-rw-rw-r-- 1 nayanika nayanika   98208 Oct  6 19:29 /home/nayanika/gamess/restart/Hydrogen_peroxide.dat
-rw-rw-r-- 1 nayanika nayanika     467 Oct  6 19:29 /home/nayanika/gamess/restart/Hydrogen_peroxide.F05
-rw-rw-r-- 1 nayanika nayanika 1980176 Oct  6 19:29 /home/nayanika/gamess/restart/Hydrogen_peroxide.F08
-rw-rw-r-- 1 nayanika nayanika 1668720 Oct  6 19:29 /home/nayanika/gamess/restart/Hydrogen_peroxide.F10
Thursday 06 October 2022 07:29:09 PM IST
0.0u 0.1s 0:04.16 4.5% 0+0k 0+16io 0pf+0w
